# vtk DataFile Version 3.0
solver checkpoint state
ASCII
DATASET STRUCTURED_POINTS
DIMENSIONS 128 128 1
ORIGIN 0.0245437 0.0245437 0.5
SPACING 0.0490874 0.0490874 1
POINT_DATA 16384
VECTORS velocity double
-0.0235678 0.0235678 0
-0.0222293 0.0725342 0
-0.0203575 0.121754 0
-0.0184605 0.170567 0
-0.0167621 0.21879 0
-0.0153232 0.266351 0
-0.0141363 0.31317 0
-0.0131683 0.359157 0
-0.0123793 0.40422 0
-0.0117302 0.448261 0
-0.0111852 0.491188 0
-0.0107134 0.532905 0
-0.0102888 0.573321 0
-0.00989075 0.612345 0
-0.0095029 0.649888 0
-0.00911312 0.685864 0
-0.00871266 0.720189 0
-0.00829556 0.752783 0
-0.00785804 0.783569 0
-0.00739806 0.812474 0
-0.00691483 0.839429 0
-0.00640854 0.864371 0
-0.00588008 0.887239 0
-0.00533084 0.90798 0
-0.00476256 0.926543 0
-0.00417724 0.942884 0
-0.00357704 0.956963 0
-0.00296427 0.968748 0
-0.00234132 0.97821 0
-0.00171067 0.985326 0
-0.00107496 0.990078 0
-0.00043646 0.992455 0
0.000202342 0.992455 0
0.000838566 0.990077 0
0.00146982 0.985324 0
0.00209371 0.978208 0
0.00270757 0.968746 0
0.0033088 0.956961 0
0.0038949 0.942881 0
0.00446343 0.92654 0
0.00501206 0.907977 0
0.00553858 0.887237 0
0.00604104 0.86437 0
0.00651778 0.839429 0
0.00696762 0.812476 0
0.00739004 0.783573 0
0.00778545 0.75279 0
0.00815547 0.720201 0
0.00850341 0.685881 0
0.00883471 0.649912 0
0.00915754 0.612378 0
0.00948338 0.573365 0
0.00982771 0.532963 0
0.0102105 0.491264 0
0.0106568 0.44836 0
0.0111965 0.404346 0
0.011864 0.359319 0
0.0126974 0.313377 0
0.0137358 0.266616 0
0.0150153 0.219139 0
0.0165618 0.171044 0
0.0183802 0.122431 0
0.0204177 0.0733928 0
0.0224513 0.0240248 0
0.0239354 -0.0255089 0
0.0246732 -0.07468 0
0.0249496 -0.123457 0
0.0249212 -0.171807 0
0.0246598 -0.219661 0
0.0242148 -0.266929 0
0.0236277 -0.313515 0
0.0229326 -0.359319 0
0.0221574 -0.404239 0
0.0213249 -0.448174 0
0.0204527 -0.491023 0
0.0195544 -0.532688 0
0.0186394 -0.57307 0
0.0177144 -0.612074 0
0.0167835 -0.649608 0
0.0158493 -0.685582 0
0.014913 -0.719911 0
0.0139751 -0.752512 0
0.0130355 -0.783307 0
0.0120939 -0.812222 0
0.0111501 -0.839189 0
0.0102036 -0.864141 0
0.00925424 -0.887019 0
0.0083019 -0.907769 0
0.00734657 -0.926341 0
0.00638839 -0.94269 0
0.00542764 -0.956777 0
0.00446469 -0.968568 0
0.00350002 -0.978035 0
0.00253413 -0.985155 0
0.00156754 -0.989911 0
0.000600679 -0.99229 0
-0.000365593 -0.992292 0
-0.00133016 -0.989915 0
-0.00229224 -0.985162 0
-0.00325132 -0.978045 0
-0.00420681 -0.968581 0
-0.0051581 -0.956792 0
-0.00610461 -0.942708 0
-0.00704582 -0.926362 0
-0.00798127 -0.907793 0
-0.00891062 -0.887046 0
-0.00983363 -0.86417 0
-0.0107502 -0.83922 0
-0.0116601 -0.812256 0
-0.0125635 -0.783343 0
-0.0134603 -0.75255 0
-0.0143503 -0.71995 0
-0.015233 -0.685621 0
-0.0161073 -0.649646 0
-0.0169715 -0.61211 0
-0.0178222 -0.573103 0
-0.0186544 -0.532715 0
-0.0194606 -0.491043 0
-0.02023 -0.448182 0
-0.0209479 -0.404231 0
-0.0215947 -0.359289 0
-0.0221457 -0.313455 0
-0.0225703 -0.266827 0
-0.0228379 -0.219485 0
-0.0229381 -0.17147 0
-0.0229325 -0.122753 0
-0.0230172 -0.0733221 0
-0.0235678 -0.0235678 0
-0.0733221 0.0230172 0
-0.0726221 0.0710463 0
-0.0711263 0.119874 0
-0.0691701 0.168593 0
-0.0669677 0.216863 0
-0.0646566 0.264528 0
-0.0623205 0.311469 0
-0.0600083 0.357578 0
-0.0577445 0.402747 0
-0.055536 0.446877 0
-0.0533779 0.489869 0
-0.0512575 0.531631 0
-0.0491585 0.572071 0
-0.0470631 0.611101 0
-0.0449543 0.648635 0
-0.0428171 0.68459 0
-0.0406391 0.718885 0
-0.0384108 0.751442 0
-0.0361252 0.782187 0
-0.0337782 0.811049 0
-0.031368 0.837961 0
-0.0288945 0.86286 0
-0.0263595 0.885687 0
-0.0237661 0.906389 0
-0.0211183 0.924917 0
-0.0184211 0.941227 0
-0.0156802 0.955279 0
-0.0129017 0.967041 0
-0.0100922 0.976485 0
-0.00725857 0.983587 0
-0.00440808 0.98833 0
-0.00154717 0.990703 0
0.00131698 0.990704 0
0.00417571 0.988333 0
0.00702185 0.983591 0
0.00984885 0.976491 0
0.0126495 0.967049 0
0.0154167 0.955289 0
0.0181439 0.941239 0
0.0208247 0.924932 0
0.0234533 0.906408 0
0.0260246 0.885709 0
0.0285343 0.862886 0
0.030979 0.837992 0
0.0333568 0.811086 0
0.0356673 0.78223 0
0.0379121 0.751493 0
0.0400949 0.718945 0
0.0422222 0.684661 0
0.0443029 0.64872 0
0.0463491 0.611201 0
0.0483752 0.57219 0
0.0503976 0.531772 0
0.0524334 0.490036 0
0.0544983 0.447076 0
0.0566043 0.402985 0
0.0587558 0.357862 0
0.0609454 0.311811 0
0.0631491 0.26494 0
0.0653211 0.217364 0
0.0673892 0.169204 0
0.0692487 0.120592 0
0.0707625 0.0716799 0
0.0717904 0.0226763 0
0.0722918 -0.0261459 0
0.0723335 -0.0748226 0
0.0720079 -0.123266 0
0.0713989 -0.171362 0
0.0705642 -0.21901 0
0.0695381 -0.266109 0
0.0683413 -0.312552 0
0.0669877 -0.358234 0
0.065487 -0.403049 0
0.0638464 -0.446891 0
0.062071 -0.489658 0
0.060165 -0.531248 0
0.058132 -0.571561 0
0.0559756 -0.610501 0
0.0536992 -0.647974 0
0.0513069 -0.68389 0
0.0488028 -0.718163 0
0.0461916 -0.750711 0
0.0434785 -0.781455 0
0.0406688 -0.810323 0
0.0377686 -0.837244 0
0.034784 -0.862154 0
0.0317215 -0.884994 0
0.028588 -0.905709 0
0.0253903 -0.924249 0
0.0221359 -0.94057 0
0.0188319 -0.954633 0
0.0154861 -0.966404 0
0.012106 -0.975855 0
0.0086993 -0.982963 0
0.00527383 -0.987711 0
0.00183712 -0.990087 0
-0.00160283 -0.990089 0
-0.00503738 -0.987718 0
-0.00845837 -0.982976 0
-0.0118582 -0.975873 0
-0.0152291 -0.966427 0
-0.0185633 -0.954661 0
-0.021853 -0.940603 0
-0.0250904 -0.924288 0
-0.0282681 -0.905754 0
-0.0313786 -0.885045 0
-0.0344146 -0.862211 0
-0.0373691 -0.837307 0
-0.0402352 -0.810393 0
-0.0430063 -0.781532 0
-0.0456763 -0.750794 0
-0.0482389 -0.718253 0
-0.0506887 -0.683986 0
-0.0530203 -0.648076 0
-0.0552288 -0.610608 0
-0.0573095 -0.571673 0
-0.0592577 -0.531364 0
-0.061069 -0.489776 0
-0.0627384 -0.447009 0
-0.0642601 -0.403164 0
-0.0656266 -0.358342 0
-0.0668274 -0.31265 0
-0.0678499 -0.266185 0
-0.0686896 -0.21902 0
-0.0693846 -0.17114 0
-0.0700754 -0.122398 0
-0.0710463 -0.0726221 0
-0.0725342 -0.0222293 0
-0.122753 0.0229325 0
-0.122398 0.0700754 0
-0.121367 0.118319 0
-0.119788 0.166613 0
-0.117723 0.214576 0
-0.115241 0.262022 0
-0.112414 0.308813 0
-0.109312 0.354819 0
-0.105992 0.399922 0
-0.102505 0.444006 0
-0.098888 0.486964 0
-0.0951659 0.528694 0
-0.0913543 0.569098 0
-0.0874606 0.608085 0
-0.083486 0.645568 0
-0.0794285 0.681463 0
-0.0752839 0.71569 0
-0.0710478 0.748173 0
-0.0667162 0.778839 0
-0.0622865 0.80762 0
-0.0577578 0.83445 0
-0.0531307 0.859269 0
-0.048408 0.88202 0
-0.0435939 0.902649 0
-0.0386944 0.92111 0
-0.0337166 0.937359 0
-0.0286691 0.951358 0
-0.0235611 0.963076 0
-0.018403 0.972483 0
-0.0132055 0.979558 0
-0.00797996 0.984284 0
-0.0027367 0.986645 0
0.00251256 0.986648 0
0.00775372 0.984289 0
0.0129751 0.979567 0
0.0181662 0.972496 0
0.0233157 0.963094 0
0.0284128 0.951381 0
0.033447 0.937386 0
0.0384089 0.921143 0
0.0432899 0.902688 0
0.0480827 0.882065 0
0.052781 0.859322 0
0.0573804 0.834511 0
0.061878 0.80769 0
0.0662727 0.77892 0
0.0705651 0.748266 0
0.0747577 0.715797 0
0.0788539 0.681586 0
0.0828577 0.64571 0
0.086773 0.608249 0
0.0906013 0.569287 0
0.0943409 0.528912 0
0.0979838 0.487217 0
0.101514 0.444299 0
0.104907 0.400262 0
0.108124 0.355216 0
0.111116 0.309275 0
0.113825 0.262563 0
0.116184 0.215209 0
0.118128 0.167348 0
0.119597 0.11912 0
0.120555 0.0706792 0
0.121015 0.0221894 0
0.121045 -0.0261906 0
0.120711 -0.0744858 0
0.120039 -0.122604 0
0.119049 -0.170424 0
0.117763 -0.217827 0
0.116195 -0.264698 0
0.114355 -0.310926 0
0.11225 -0.356402 0
0.109888 -0.401017 0
0.107272 -0.444667 0
0.10441 -0.487246 0
0.101308 -0.528653 0
0.0979721 -0.568788 0
0.0944098 -0.607555 0
0.090629 -0.644862 0
0.0866383 -0.680619 0
0.0824469 -0.714739 0
0.0780645 -0.747141 0
0.0735012 -0.777749 0
0.0687678 -0.806487 0
0.0638752 -0.833287 0
0.0588349 -0.858086 0
0.0536587 -0.880824 0
0.0483587 -0.901446 0
0.0429473 -0.919903 0
0.0374371 -0.936151 0
0.031841 -0.950151 0
0.026172 -0.96187 0
0.0204433 -0.97128 0
0.0146683 -0.978357 0
0.00886024 -0.983084 0
0.00303238 -0.985449 0
-0.00280155 -0.985453 0
-0.00862718 -0.983095 0
-0.0144308 -0.978375 0
-0.020199 -0.971305 0
-0.0259185 -0.961904 0
-0.0315759 -0.950193 0
-0.0371579 -0.9362 0
-0.0426512 -0.919961 0
-0.0480427 -0.901512 0
-0.0533197 -0.880899 0
-0.0584696 -0.858171 0
-0.0634798 -0.833383 0
-0.0683384 -0.806593 0
-0.0730334 -0.777866 0
-0.0775534 -0.74727 0
-0.0818873 -0.71488 0
-0.0860242 -0.680772 0
-0.0899539 -0.645028 0
-0.0936664 -0.607735 0
-0.0971523 -0.568981 0
-0.100403 -0.528858 0
-0.103409 -0.487464 0
-0.106163 -0.444898 0
-0.108657 -0.401259 0
-0.110883 -0.356655 0
-0.112829 -0.31119 0
-0.11449 -0.264962 0
-0.115879 -0.218014 0
-0.117085 -0.170246 0
-0.118319 -0.121367 0
-0.119874 -0.0711263 0
-0.121754 -0.0203575 0
-0.17147 0.0229381 0
-0.17114 0.0693846 0
-0.170246 0.117085 0
-0.168831 0.164853 0
-0.166877 0.212317 0
-0.164385 0.259307 0
-0.161372 0.305689 0
-0.15787 0.351338 0
-0.153919 0.396133 0
-0.149566 0.439955 0
-0.144856 0.482688 0
-0.139833 0.524225 0
-0.134537 0.564459 0
-0.129 0.603293 0
-0.123249 0.640634 0
-0.117305 0.676394 0
-0.111182 0.710491 0
-0.104893 0.742846 0
-0.0984458 0.773387 0
-0.0918485 0.802045 0
-0.0851072 0.828756 0
-0.0782288 0.853459 0
-0.0712201 0.876099 0
-0.0640894 0.896625 0
-0.0568457 0.914991 0
-0.0494991 0.931154 0
-0.0420611 0.945078 0
-0.034544 0.956731 0
-0.0269612 0.966086 0
-0.0193267 0.973122 0
-0.0116551 0.977822 0
-0.00395981 0.980168 0
0.00374367 0.980172 0
0.0114369 0.977831 0
0.0191045 0.973137 0
0.0267329 0.966107 0
0.0343075 0.956758 0
0.0418142 0.945112 0
0.0492395 0.931196 0
0.0565709 0.91504 0
0.0637969 0.896683 0
0.0709072 0.876167 0
0.0778926 0.853537 0
0.0847447 0.828845 0
0.0914563 0.802148 0
0.0980204 0.773504 0
0.10443 0.74298 0
0.110678 0.710643 0
0.116755 0.676567 0
0.12265 0.640831 0
0.128345 0.603518 0
0.133821 0.564715 0
0.13905 0.524516 0
0.144 0.483021 0
0.14863 0.440334 0
0.152898 0.396568 0
0.156755 0.351836 0
0.160158 0.30626 0
0.163066 0.259962 0
0.165448 0.213068 0
0.167289 0.165704 0
0.168588 0.117996 0
0.169365 0.0700682 0
0.16966 0.0220463 0
0.169523 -0.0259412 0
0.168983 -0.0738608 0
0.168039 -0.121613 0
0.166694 -0.169081 0
0.164954 -0.216143 0
0.162823 -0.262683 0
0.16031 -0.308587 0
0.157419 -0.353746 0
0.15416 -0.398051 0
0.150539 -0.441397 0
0.146564 -0.48368 0
0.142246 -0.524798 0
0.137594 -0.564654 0
0.132619 -0.603152 0
0.127332 -0.640198 0
0.121746 -0.675706 0
0.115875 -0.709589 0
0.109731 -0.741766 0
0.10333 -0.77216 0
0.0966863 -0.800698 0
0.0898161 -0.827313 0
0.0827354 -0.85194 0
0.075461 -0.87452 0
0.0680099 -0.894999 0
0.0603999 -0.913328 0
0.0526488 -0.929464 0
0.044775 -0.943368 0
0.0367969 -0.955007 0
0.0287333 -0.964351 0
0.0206033 -0.97138 0
0.0124259 -0.976075 0
0.00421999 -0.978424 0
-0.0039949 -0.978429 0
-0.0121986 -0.976089 0
-0.0203717 -0.971404 0
-0.028495 -0.964385 0
-0.0365496 -0.95505 0
-0.0445163 -0.943422 0
-0.0523762 -0.929529 0
-0.0601107 -0.913404 0
-0.0677012 -0.895086 0
-0.0751295 -0.87462 0
-0.082378 -0.852053 0
-0.0894291 -0.82744 0
-0.0962657 -0.80084 0
-0.102871 -0.772318 0
-0.10923 -0.74194 0
-0.115325 -0.709781 0
-0.121143 -0.675917 0
-0.126668 -0.640429 0
-0.131887 -0.603403 0
-0.136786 -0.564927 0
-0.141353 -0.525094 0
-0.145575 -0.484 0
-0.149442 -0.441742 0
-0.152941 -0.398422 0
-0.156062 -0.354146 0
-0.158793 -0.309022 0
-0.161128 -0.263134 0
-0.163105 -0.216475 0
-0.164853 -0.168831 0
-0.166613 -0.119788 0
-0.168593 -0.0691701 0
-0.170567 -0.0184605 0
-0.219485 0.0228379 0
-0.21902 0.0686896 0
-0.218014 0.115879 0
-0.216475 0.163105 0
-0.214373 0.210009 0
-0.211689 0.256438 0
-0.208415 0.30227 0
-0.204552 0.347392 0
-0.200113 0.391689 0
-0.195116 0.435049 0
-0.189591 0.477359 0
-0.183572 0.518511 0
-0.177094 0.558399 0
-0.170198 0.59692 0
-0.16292 0.633979 0
-0.155296 0.669482 0
-0.147358 0.703343 0
-0.139135 0.735482 0
-0.130653 0.765822 0
-0.121933 0.794293 0
-0.112996 0.820829 0
-0.103859 0.84537 0
-0.0945411 0.86786 0
-0.0850571 0.888249 0
-0.0754236 0.90649 0
-0.0656567 0.922541 0
-0.055773 0.936369 0
-0.0457894 0.94794 0
-0.0357236 0.957229 0
-0.0255934 0.964215 0
-0.015417 0.968881 0
-0.0052112 0.971208 0
0.00500492 0.971212 0
0.0152088 0.968893 0
0.0253814 0.964235 0
0.0355058 0.957257 0
0.0455638 0.947976 0
0.0555375 0.936414 0
0.0654092 0.922597 0
0.0751618 0.906555 0
0.0847786 0.888325 0
0.0942433 0.867949 0
0.10354 0.845472 0
0.112651 0.820946 0
0.12156 0.794426 0
0.130249 0.765973 0
0.138697 0.735653 0
0.146882 0.703537 0
0.154777 0.669701 0
0.162354 0.634226 0
0.169581 0.5972 0
0.176421 0.558716 0
0.182837 0.518869 0
0.18879 0.477764 0
0.194243 0.435508 0
0.199161 0.392209 0
0.203517 0.347981 0
0.20729 0.302939 0
0.21047 0.257196 0
0.213056 0.210867 0
0.215054 0.164067 0
0.21648 0.116908 0
0.217352 0.0695059 0
0.217693 0.0219731 0
0.217523 -0.025562 0
0.216849 -0.0730255 0
0.215667 -0.120322 0
0.213977 -0.167337 0
0.211781 -0.213951 0
0.209085 -0.260048 0
0.205895 -0.305517 0
0.202217 -0.350248 0
0.198062 -0.394133 0
0.193438 -0.437069 0
0.188357 -0.478952 0
0.18283 -0.519681 0
0.176871 -0.55916 0
0.170494 -0.597293 0
0.163714 -0.63399 0
0.156547 -0.669161 0
0.149009 -0.702724 0
0.14112 -0.734597 0
0.132897 -0.764704 0
0.12436 -0.792973 0
0.115529 -0.819337 0
0.106426 -0.843731 0
0.0970717 -0.866099 0
0.0874884 -0.886385 0
0.0776989 -0.904542 0
0.0677264 -0.920527 0
0.0575947 -0.9343 0
0.0473276 -0.945829 0
0.0369496 -0.955087 0
0.0264852 -0.96205 0
0.0159591 -0.966701 0
0.00539599 -0.969029 0
-0.00517899 -0.969034 0
-0.01574 -0.966719 0
-0.0262618 -0.962079 0
-0.0367198 -0.955128 0
-0.0470891 -0.945883 0
-0.057345 -0.934366 0
-0.0674632 -0.920606 0
-0.0774195 -0.904636 0
-0.08719 -0.886494 0
-0.0967513 -0.866223 0
-0.10608 -0.843872 0
-0.115155 -0.819495 0
-0.123953 -0.793151 0
-0.132452 -0.764902 0
-0.140634 -0.734816 0
-0.148476 -0.702966 0
-0.15596 -0.669429 0
-0.163068 -0.634284 0
-0.169782 -0.597616 0
-0.176084 -0.559513 0
-0.181959 -0.520067 0
-0.187391 -0.479372 0
-0.192366 -0.437527 0
-0.19687 -0.394633 0
-0.200888 -0.350796 0
-0.204406 -0.306124 0
-0.207426 -0.260677 0
-0.210009 -0.214373 0
-0.212317 -0.166877 0
-0.214576 -0.117723 0
-0.216863 -0.0669677 0
-0.21879 -0.0167621 0
-0.266827 0.0225703 0
-0.266185 0.0678499 0
-0.264962 0.11449 0
-0.263134 0.161128 0
-0.260677 0.207426 0
-0.257579 0.253239 0
-0.253835 0.298451 0
-0.249442 0.342956 0
-0.244403 0.386646 0
-0.238723 0.429415 0
-0.232414 0.471158 0
-0.225494 0.511772 0
-0.217985 0.551153 0
-0.209919 0.589203 0
-0.201326 0.625825 0
-0.192242 0.660927 0
-0.182704 0.694421 0
-0.172747 0.726224 0
-0.162406 0.756257 0
-0.151716 0.784448 0
-0.140708 0.810729 0
-0.129413 0.835039 0
-0.11786 0.85732 0
-0.106075 0.87752 0
-0.0940849 0.895594 0
-0.0819148 0.9115 0
-0.0695894 0.925201 0
-0.057133 0.936667 0
-0.0445697 0.945872 0
-0.0319235 0.952795 0
-0.0192181 0.957419 0
-0.00647527 0.959722 0
0.00628059 0.959727 0
0.0190216 0.957434 0
0.0317235 0.95282 0
0.0443642 0.945907 0
0.0569202 0.936712 0
0.0693674 0.925257 0
0.0816816 0.911568 0
0.0938383 0.895675 0
0.105813 0.877614 0
0.11758 0.857429 0
0.129113 0.835164 0
0.140385 0.810871 0
0.151367 0.784609 0
0.162028 0.756439 0
0.172337 0.72643 0
0.182259 0.694654 0
0.191758 0.661189 0
0.200799 0.62612 0
0.209345 0.589534 0
0.217361 0.551526 0
0.224813 0.512191 0
0.231673 0.47163 0
0.237918 0.429945 0
0.243528 0.387243 0
0.248492 0.343627 0
0.252804 0.299207 0
0.256464 0.254088 0
0.259474 0.20838 0
0.261838 0.162191 0
0.263562 0.115634 0
0.264652 0.0688186 0
0.265113 0.0218582 0
0.264952 -0.0251167 0
0.26417 -0.0720142 0
0.262764 -0.118746 0
0.260737 -0.165197 0
0.258092 -0.211251 0
0.254835 -0.256795 0
0.250973 -0.301718 0
0.246516 -0.345912 0
0.241473 -0.389271 0
0.235857 -0.431692 0
0.229681 -0.473072 0
0.22296 -0.513313 0
0.215709 -0.552318 0
0.207945 -0.589995 0
0.199688 -0.626251 0
0.190957 -0.661002 0
0.181773 -0.694162 0
0.172157 -0.725654 0
0.162132 -0.7554 0
0.151723 -0.783331 0
0.140954 -0.809379 0
0.129851 -0.833482 0
0.11844 -0.855582 0
0.106748 -0.875627 0
0.0948033 -0.893567 0
0.0826344 -0.909361 0
0.07027 -0.92297 0
0.0577395 -0.934362 0
0.0450729 -0.94351 0
0.0323002 -0.95039 0
0.0194517 -0.954987 0
0.00655766 -0.957286 0
-0.00635105 -0.957293 0
-0.019243 -0.955007 0
-0.0320875 -0.950425 0
-0.044854 -0.943558 0
-0.0575122 -0.934425 0
-0.070032 -0.923048 0
-0.0823834 -0.909455 0
-0.0945368 -0.893678 0
-0.106463 -0.875755 0
-0.118134 -0.85573 0
-0.129521 -0.833649 0
-0.140596 -0.809568 0
-0.151333 -0.783543 0
-0.161707 -0.755636 0
-0.171691 -0.725916 0
-0.181261 -0.694454 0
-0.190395 -0.661324 0
-0.199068 -0.626607 0
-0.207261 -0.590387 0
-0.214951 -0.55275 0
-0.222121 -0.513786 0
-0.228751 -0.473591 0
-0.234824 -0.43226 0
-0.240323 -0.389896 0
-0.24523 -0.346608 0
-0.249531 -0.302493 0
-0.253239 -0.257579 0
-0.256438 -0.211689 0
-0.259307 -0.164385 0
-0.262022 -0.115241 0
-0.264528 -0.0646566 0
-0.266351 -0.0153232 0
-0.313455 0.0221457 0
-0.31265 0.0668274 0
-0.31119 0.112829 0
-0.309022 0.158793 0
-0.306124 0.204406 0
-0.302493 0.249531 0
-0.298135 0.294057 0
-0.293053 0.337877 0
-0.287253 0.380887 0
-0.280743 0.422984 0
-0.273531 0.464069 0
-0.265631 0.504041 0
-0.257058 0.542803 0
-0.247833 0.580261 0
-0.23798 0.616322 0
-0.227529 0.650896 0
-0.216511 0.683896 0
-0.204961 0.715241 0
-0.192914 0.744852 0
-0.180409 0.772657 0
-0.167483 0.798586 0
-0.154173 0.822577 0
-0.140516 0.844572 0
-0.126549 0.864517 0
-0.112307 0.882365 0
-0.0978237 0.898076 0
-0.0831339 0.91161 0
-0.0682704 0.922938 0
-0.0532656 0.932033 0
-0.0381517 0.938874 0
-0.0229597 0.943443 0
-0.00771932 0.945715 0
0.00753785 0.945721 0
0.0227766 0.94346 0
0.0379652 0.938903 0
0.0530742 0.932074 0
0.0680722 0.922991 0
0.0829272 0.911676 0
0.0976067 0.898155 0
0.112077 0.88246 0
0.126305 0.864627 0
0.140256 0.844698 0
0.153894 0.822722 0
0.167183 0.798752 0
0.180086 0.772844 0
0.192565 0.745064 0
0.204582 0.715479 0
0.216101 0.684164 0
0.227083 0.651196 0
0.237496 0.616659 0
0.247306 0.580639 0
0.256485 0.543226 0
0.265009 0.504515 0
0.272855 0.464599 0
0.280009 0.423578 0
0.286457 0.381552 0
0.292191 0.338621 0
0.297203 0.294889 0
0.301487 0.250461 0
0.30504 0.205444 0
0.307856 0.159946 0
0.309933 0.114078 0
0.311268 0.0679496 0
0.311863 0.0216713 0
0.311718 -0.0246248 0
0.310835 -0.0708403 0
0.309213 -0.116891 0
0.306855 -0.162666 0
0.303768 -0.208049 0
0.299958 -0.25293 0
0.295434 -0.297198 0
0.290208 -0.340748 0
0.28429 -0.383475 0
0.277695 -0.425277 0
0.270439 -0.466054 0
0.262539 -0.505709 0
0.254013 -0.544146 0
0.244883 -0.581273 0
0.235169 -0.617002 0
0.224896 -0.651246 0
0.214087 -0.683924 0
0.202768 -0.714957 0
0.190967 -0.744271 0
0.178711 -0.771796 0
0.16603 -0.797465 0
0.152954 -0.821217 0
0.139514 -0.842996 0
0.125743 -0.862749 0
0.111673 -0.880429 0
0.0973372 -0.895994 0
0.0827707 -0.909406 0
0.0680079 -0.920633 0
0.053084 -0.929648 0
0.0380345 -0.93643 0
0.0228953 -0.94096 0
0.00770227 -0.943226 0
-0.00750827 -0.943234 0
-0.0226994 -0.940983 0
-0.0378347 -0.936469 0
-0.0528783 -0.929704 0
-0.0677943 -0.920705 0
-0.0825471 -0.909496 0
-0.0971012 -0.896102 0
-0.111422 -0.880557 0
-0.125475 -0.862897 0
-0.139226 -0.843166 0
-0.152643 -0.82141 0
-0.165692 -0.797682 0
-0.178343 -0.77204 0
-0.190565 -0.744544 0
-0.202328 -0.715262 0
-0.213603 -0.684263 0
-0.224363 -0.651622 0
-0.234582 -0.617417 0
-0.244234 -0.581732 0
-0.253295 -0.544652 0
-0.261742 -0.506267 0
-0.269555 -0.466668 0
-0.276712 -0.425952 0
-0.283194 -0.384223 0
-0.28898 -0.341588 0
-0.294057 -0.298135 0
-0.298451 -0.253835 0
-0.30227 -0.208415 0
-0.305689 -0.161372 0
-0.308813 -0.112414 0
-0.311469 -0.0623205 0
-0.31317 -0.0141363 0
-0.359289 0.0215947 0
-0.358342 0.0656266 0
-0.356655 0.110883 0
-0.354146 0.156062 0
-0.350796 0.200888 0
-0.346608 0.24523 0
-0.341588 0.28898 0
-0.335749 0.332032 0
-0.329102 0.374284 0
-0.32166 0.415635 0
-0.313438 0.455985 0
-0.304451 0.495238 0
-0.294718 0.5333 0
-0.284258 0.570079 0
-0.273093 0.605487 0
-0.26125 0.639437 0
-0.248758 0.671845 0
-0.235648 0.702632 0
-0.221955 0.731722 0
-0.207715 0.759043 0
-0.192967 0.784527 0
-0.177751 0.808111 0
-0.162108 0.829738 0
-0.14608 0.849354 0
-0.129707 0.866913 0
-0.113031 0.88237 0
-0.0960939 0.895689 0
-0.0789366 0.906838 0
-0.0615998 0.915791 0
-0.044124 0.922526 0
-0.0265487 0.927024 0
-0.00891218 0.929257 0
0.00874536 0.929264 0
0.0263804 0.927043 0
0.0439527 0.922559 0
0.061424 0.915838 0
0.0787546 0.906899 0
0.0959043 0.895764 0
0.112832 0.88246 0
0.129497 0.86702 0
0.145857 0.849479 0
0.161871 0.829882 0
0.177497 0.808275 0
0.192693 0.784713 0
0.20742 0.759253 0
0.221636 0.731959 0
0.235304 0.702899 0
0.248385 0.672144 0
0.260846 0.639772 0
0.272654 0.605862 0
0.283781 0.570499 0
0.294201 0.533768 0
0.303891 0.49576 0
0.31283 0.456567 0
0.321002 0.416285 0
0.328389 0.375009 0
0.334979 0.33284 0
0.340758 0.289879 0
0.345714 0.24623 0
0.349836 0.202 0
0.353115 0.157295 0
0.355546 0.112223 0
0.357124 0.066892 0
0.357848 0.0214105 0
0.357718 -0.0240902 0
0.356736 -0.0695091 0
0.354902 -0.114766 0
0.352221 -0.159752 0
0.348699 -0.204354 0
0.344346 -0.248462 0
0.339172 -0.291968 0
0.333188 -0.334768 0
0.32641 -0.376759 0
0.318852 -0.417841 0
0.310533 -0.457916 0
0.301474 -0.496888 0
0.291695 -0.534663 0
0.281219 -0.571151 0
0.270073 -0.606264 0
0.258282 -0.639919 0
0.245875 -0.672035 0
0.232881 -0.702534 0
0.219332 -0.731344 0
0.205259 -0.758395 0
0.190697 -0.783623 0
0.175681 -0.806967 0
0.160245 -0.828372 0
0.144428 -0.847785 0
0.128267 -0.865162 0
0.1118 -0.880459 0
0.0950672 -0.893641 0
0.0781083 -0.904676 0
0.0609637 -0.913537 0
0.0436745 -0.920202 0
0.0262818 -0.924655 0
0.00882711 -0.926883 0
-0.00864788 -0.926892 0
-0.0261008 -0.924681 0
-0.0434898 -0.920246 0
-0.0607736 -0.913599 0
-0.0779107 -0.904757 0
-0.0948603 -0.893742 0
-0.111582 -0.88058 0
-0.128035 -0.865305 0
-0.14418 -0.847951 0
-0.159978 -0.828562 0
-0.175392 -0.807183 0
-0.190384 -0.783867 0
-0.204917 -0.75867 0
-0.218958 -0.731652 0
-0.232471 -0.702878 0
-0.245424 -0.672418 0
-0.257785 -0.640345 0
-0.269525 -0.606736 0
-0.280613 -0.571673 0
-0.291023 -0.53524 0
-0.300729 -0.497525 0
-0.309706 -0.458619 0
-0.317931 -0.418618 0
-0.325381 -0.377626 0
-0.332032 -0.335749 0
-0.337877 -0.293053 0
-0.342956 -0.249442 0
-0.347392 -0.204552 0
-0.351338 -0.15787 0
-0.354819 -0.109312 0
-0.357578 -0.0600083 0
-0.359157 -0.0131683 0
-0.404231 0.0209479 0
-0.403164 0.0642601 0
-0.401259 0.108657 0
-0.398422 0.152941 0
-0.394633 0.19687 0
-0.389896 0.240323 0
-0.384223 0.283194 0
-0.377626 0.325381 0
-0.37012 0.366782 0
-0.361722 0.407298 0
-0.352453 0.44683 0
-0.342333 0.485285 0
-0.331384 0.52257 0
-0.319631 0.558595 0
-0.307099 0.593275 0
-0.293817 0.626524 0
-0.279815 0.658263 0
-0.265125 0.688414 0
-0.249782 0.716904 0
-0.233823 0.743662 0
-0.217289 0.768624 0
-0.200219 0.791728 0
-0.182658 0.812917 0
-0.164649 0.832138 0
-0.146239 0.849345 0
-0.127472 0.864495 0
-0.108396 0.877551 0
-0.0890591 0.888482 0
-0.0695078 0.89726 0
-0.0497901 0.903864 0
-0.0299532 0.908273 0
-0.010043 0.91046 0
0.00989208 0.910468 0
0.0298009 0.908295 0
0.0496352 0.9039 0
0.0693489 0.897311 0
0.0888947 0.888548 0
0.108225 0.877634 0
0.127292 0.864595 0
0.146049 0.849463 0
0.164449 0.832276 0
0.182444 0.813075 0
0.199991 0.791909 0
0.217043 0.76883 0
0.233559 0.743894 0
0.249497 0.717165 0
0.264817 0.688707 0
0.279482 0.65859 0
0.293456 0.62689 0
0.306709 0.593683 0
0.319208 0.559051 0
0.330926 0.523078 0
0.341837 0.48585 0
0.351916 0.447459 0
0.361142 0.407996 0
0.369494 0.367558 0
0.376951 0.326243 0
0.383498 0.284151 0
0.389118 0.241383 0
0.393798 0.198044 0
0.397529 0.154239 0
0.400303 0.110073 0
0.402115 0.0656517 0
0.402963 0.0210792 0
0.402846 -0.0235133 0
0.401767 -0.068024 0
0.399725 -0.112376 0
0.396727 -0.156463 0
0.39278 -0.200175 0
0.387894 -0.243402 0
0.382081 -0.28604 0
0.375355 -0.327986 0
0.367732 -0.369139 0
0.359229 -0.409401 0
0.349869 -0.448676 0
0.339671 -0.48687 0
0.328662 -0.523892 0
0.316867 -0.559652 0
0.304315 -0.594065 0
0.291035 -0.627048 0
0.27706 -0.658523 0
0.262423 -0.688414 0
0.247159 -0.71665 0
0.231304 -0.743162 0
0.214897 -0.767887 0
0.197977 -0.790766 0
0.180583 -0.811744 0
0.162759 -0.830771 0
0.144546 -0.847802 0
0.125988 -0.862795 0
0.10713 -0.875715 0
0.0880166 -0.88653 0
0.0686934 -0.895215 0
0.0492067 -0.901748 0
0.0296032 -0.906113 0
0.00992954 -0.908297 0
-0.00976711 -0.908306 0
-0.0294391 -0.906142 0
-0.0490393 -0.901797 0
-0.068521 -0.895283 0
-0.0878374 -0.886619 0
-0.106942 -0.875825 0
-0.12579 -0.862928 0
-0.144335 -0.847959 0
-0.162533 -0.830954 0
-0.18034 -0.811954 0
-0.197713 -0.791005 0
-0.214611 -0.768157 0
-0.230992 -0.743466 0
-0.246818 -0.71699 0
-0.262049 -0.688795 0
-0.276648 -0.658948 0
-0.290581 -0.627521 0
-0.303813 -0.594589 0
-0.316311 -0.560233 0
-0.328046 -0.524536 0
-0.338987 -0.487583 0
-0.349108 -0.449464 0
-0.358382 -0.410274 0
-0.366782 -0.37012 0
-0.374284 -0.329102 0
-0.380887 -0.287253 0
-0.386646 -0.244403 0
-0.391689 -0.200113 0
-0.396133 -0.153919 0
-0.399922 -0.105992 0
-0.402747 -0.0577445 0
-0.40422 -0.0123793 0
-0.448182 0.02023 0
-0.447009 0.0627384 0
-0.444898 0.106163 0
-0.441742 0.149442 0
-0.437527 0.192366 0
-0.43226 0.234824 0
-0.425952 0.276712 0
-0.418618 0.317931 0
-0.410274 0.358382 0
-0.40094 0.397967 0
-0.390639 0.43659 0
-0.379394 0.47416 0
-0.367232 0.510585 0
-0.354182 0.545777 0
-0.340274 0.579653 0
-0.325541 0.61213 0
-0.310016 0.64313 0
-0.293737 0.672577 0
-0.27674 0.700401 0
-0.259066 0.726533 0
-0.240758 0.750911 0
-0.221859 0.773473 0
-0.202415 0.794166 0
-0.182474 0.812938 0
-0.162084 0.829744 0
-0.141295 0.844541 0
-0.12016 0.857294 0
-0.0987297 0.867971 0
-0.0770574 0.876547 0
-0.0551964 0.882999 0
-0.0331999 0.887306 0
-0.0111206 0.889439 0
0.0109867 0.889447 0
0.0330649 0.887329 0
0.055059 0.883038 0
0.0769165 0.876602 0
0.0985841 0.868044 0
0.120008 0.857384 0
0.141137 0.84465 0
0.161916 0.829872 0
0.182296 0.813088 0
0.202226 0.794338 0
0.221657 0.773669 0
0.240542 0.751133 0
0.258834 0.726784 0
0.27649 0.700682 0
0.293467 0.672892 0
0.309725 0.643482 0
0.325226 0.612523 0
0.339934 0.580091 0
0.353815 0.546264 0
0.366835 0.511126 0
0.378965 0.474761 0
0.390176 0.437257 0
0.400442 0.398706 0
0.409737 0.359201 0
0.418042 0.318839 0
0.425335 0.277716 0
0.431599 0.235933 0
0.436822 0.193591 0
0.44099 0.150793 0
0.444096 0.10764 0
0.446134 0.0642354 0
0.447101 0.0206811 0
0.446996 -0.0228939 0
0.44582 -0.0663877 0
0.443576 -0.109726 0
0.440267 -0.152806 0
0.435904 -0.195521 0
0.430497 -0.237763 0
0.424059 -0.279429 0
0.416607 -0.320419 0
0.408157 -0.360634 0
0.398731 -0.399978 0
0.388351 -0.438358 0
0.37704 -0.475681 0
0.364828 -0.511859 0
0.351742 -0.546804 0
0.337814 -0.580433 0
0.323078 -0.612665 0
0.307569 -0.643423 0
0.291324 -0.672633 0
0.274382 -0.700225 0
0.256784 -0.726133 0
0.238572 -0.750295 0
0.219788 -0.772654 0
0.20048 -0.793155 0
0.180692 -0.811749 0
0.160472 -0.828392 0
0.139868 -0.843044 0
0.118931 -0.85567 0
0.0977093 -0.86624 0
0.0762546 -0.874728 0
0.0546181 -0.881113 0
0.0328516 -0.885378 0
0.011007 -0.887513 0
-0.0108632 -0.887523 0
-0.0327063 -0.88541 0
-0.0544699 -0.881165 0
-0.0761019 -0.874801 0
-0.0975505 -0.866336 0
-0.118764 -0.85579 0
-0.139692 -0.843188 0
-0.160284 -0.828562 0
-0.180491 -0.811946 0
-0.200263 -0.793382 0
-0.219554 -0.772913 0
-0.238317 -0.750589 0
-0.256506 -0.726463 0
-0.274078 -0.700596 0
-0.29099 -0.673047 0
-0.307201 -0.643885 0
-0.322671 -0.61318 0
-0.337364 -0.581006 0
-0.351243 -0.54744 0
-0.364274 -0.512564 0
-0.376425 -0.476462 0
-0.387666 -0.439222 0
-0.397967 -0.40094 0
-0.407298 -0.361722 0
-0.415635 -0.32166 0
-0.422984 -0.280743 0
-0.429415 -0.238723 0
-0.435049 -0.195116 0
-0.439955 -0.149566 0
-0.444006 -0.102505 0
-0.446877 -0.055536 0
-0.448261 -0.0117302 0
-0.491043 0.0194606 0
-0.489776 0.061069 0
-0.487464 0.103409 0
-0.484 0.145575 0
-0.479372 0.187391 0
-0.473591 0.228751 0
-0.466668 0.269555 0
-0.458619 0.309706 0
-0.449464 0.349108 0
-0.439222 0.387666 0
-0.427919 0.425287 0
-0.415582 0.461881 0
-0.402239 0.497359 0
-0.387923 0.531637 0
-0.372668 0.56463 0
-0.356509 0.596261 0
-0.339486 0.626451 0
-0.321639 0.655129 0
-0.30301 0.682224 0
-0.283644 0.707671 0
-0.263586 0.731408 0
-0.242886 0.753377 0
-0.221592 0.773525 0
-0.199757 0.791803 0
-0.177432 0.808165 0
-0.154673 0.822572 0
-0.131534 0.834989 0
-0.108073 0.845385 0
-0.0843464 0.853735 0
-0.0604133 0.860017 0
-0.0363317 0.864209 0
-0.0121594 0.866284 0
0.0120435 0.866292 0
0.0362147 0.864234 0
0.0602944 0.860059 0
0.0842245 0.853794 0
0.107947 0.845462 0
0.131403 0.835085 0
0.154535 0.822688 0
0.177288 0.808302 0
0.199604 0.791962 0
0.22143 0.773708 0
0.242713 0.753585 0
0.263401 0.731644 0
0.283445 0.707936 0
0.302796 0.682522 0
0.321409 0.655462 0
0.339238 0.626824 0
0.356242 0.596676 0
0.37238 0.565092 0
0.387613 0.53215 0
0.401905 0.497928 0
0.415222 0.462511 0
0.427533 0.425985 0
0.438807 0.388438 0
0.449018 0.349962 0
0.458143 0.310649 0
0.46616 0.270596 0
0.47305 0.229898 0
0.478798 0.188656 0
0.483391 0.146967 0
0.486819 0.104931 0
0.489076 0.0626491 0
0.490158 0.020219 0
0.490063 -0.0222322 0
0.488793 -0.0646031 0
0.486349 -0.106823 0
0.482738 -0.148791 0
0.477969 -0.190403 0
0.472054 -0.231557 0
0.465007 -0.27215 0
0.456846 -0.312084 0
0.447591 -0.351263 0
0.437263 -0.389594 0
0.425888 -0.426986 0
0.413492 -0.463348 0
0.400105 -0.498593 0
0.38576 -0.532639 0
0.370491 -0.565401 0
0.354335 -0.596804 0
0.337329 -0.62677 0
0.319516 -0.655228 0
0.300937 -0.68211 0
0.281638 -0.707351 0
0.261664 -0.730891 0
0.241064 -0.752675 0
0.219887 -0.772648 0
0.198184 -0.790764 0
0.176006 -0.806979 0
0.153407 -0.821254 0
0.130441 -0.833556 0
0.107163 -0.843854 0
0.0836293 -0.852124 0
0.0598957 -0.858346 0
0.0360192 -0.862502 0
0.0120569 -0.864582 0
-0.0119336 -0.864593 0
-0.0358946 -0.862536 0
-0.0597685 -0.858402 0
-0.0834981 -0.852203 0
-0.107027 -0.843957 0
-0.130298 -0.833684 0
-0.153255 -0.821408 0
-0.175844 -0.807161 0
-0.19801 -0.790975 0
-0.2197 -0.772891 0
-0.240862 -0.752951 0
-0.261444 -0.731205 0
-0.281397 -0.707705 0
-0.300673 -0.682507 0
-0.319225 -0.655672 0
-0.337008 -0.627266 0
-0.35398 -0.597357 0
-0.370098 -0.566017 0
-0.385324 -0.533323 0
-0.399621 -0.499353 0
-0.412953 -0.46419 0