# vtk DataFile Version 3.0
solver checkpoint state
ASCII
DATASET STRUCTURED_POINTS
DIMENSIONS 128 128 1
ORIGIN 0.0245437 0.0245437 0.5
SPACING 0.0490874 0.0490874 1
POINT_DATA 16384
VECTORS velocity double
-0.0236209 0.0236209 0
-0.0222391 0.0725522 0
-0.0203579 0.121761 0
-0.0184587 0.170571 0
-0.0167606 0.218795 0
-0.0153239 0.266356 0
-0.0141411 0.313175 0
-0.0131783 0.359164 0
-0.0123951 0.404225 0
-0.0117518 0.448266 0
-0.0112121 0.491191 0
-0.0107445 0.532906 0
-0.0103229 0.573321 0
-0.00992621 0.612344 0
-0.00953838 0.649886 0
-0.0091474 0.685861 0
-0.00874477 0.720186 0
-0.00832483 0.752779 0
-0.00788407 0.783565 0
-0.00742069 0.81247 0
-0.00693411 0.839426 0
-0.00642466 0.864368 0
-0.00589332 0.887236 0
-0.00534153 0.907977 0
-0.00477103 0.92654 0
-0.00418383 0.942882 0
-0.00358206 0.956962 0
-0.00296797 0.968747 0
-0.00234393 0.978209 0
-0.00171238 0.985325 0
-0.00107589 0.990077 0
-0.000436683 0.992454 0
0.000202798 0.992454 0
0.000839727 0.990076 0
0.00147177 0.985323 0
0.00209657 0.978207 0
0.00271151 0.968745 0
0.00331406 0.956959 0
0.00390175 0.942879 0
0.00447217 0.926538 0
0.00502301 0.907975 0
0.0055521 0.887235 0
0.00605745 0.864367 0
0.00653736 0.839426 0
0.00699057 0.812472 0
0.00741641 0.783569 0
0.00781507 0.752787 0
0.00818797 0.720197 0
0.0085381 0.685878 0
0.00887063 0.64991 0
0.00919345 0.612377 0
0.0095179 0.573365 0
0.00985938 0.532965 0
0.010238 0.491267 0
0.010679 0.448364 0
0.0112129 0.404352 0
0.0118746 0.359326 0
0.0127028 0.313382 0
0.013737 0.266621 0
0.0150137 0.219142 0
0.0165588 0.171046 0
0.018377 0.122431 0
0.0204152 0.0733923 0
0.0224499 0.0240241 0
0.0239352 -0.0255094 0
0.0246738 -0.0746803 0
0.0249503 -0.123458 0
0.0249215 -0.171808 0
0.024659 -0.219662 0
0.0242123 -0.266931 0
0.0236231 -0.313518 0
0.0229257 -0.359321 0
0.0221483 -0.404241 0
0.0213139 -0.448175 0
0.0204406 -0.491024 0
0.0195417 -0.532688 0
0.0186269 -0.573069 0
0.0177027 -0.612073 0
0.0167732 -0.649607 0
0.0158405 -0.685581 0
0.0149059 -0.71991 0
0.0139696 -0.752511 0
0.0130316 -0.783306 0
0.0120914 -0.812221 0
0.0111487 -0.839188 0
0.0102031 -0.86414 0
0.00925445 -0.887018 0
0.00830256 -0.907769 0
0.00734751 -0.92634 0
0.00638947 -0.942689 0
0.00542872 -0.956776 0
0.00446568 -0.968568 0
0.00350083 -0.978035 0
0.00253473 -0.985155 0
0.00156786 -0.98991 0
0.000600712 -0.992289 0
-0.000365859 -0.992291 0
-0.00133071 -0.989914 0
-0.00229307 -0.985161 0
-0.00325238 -0.978044 0
-0.00420804 -0.96858 0
-0.00515943 -0.956791 0
-0.00610594 -0.942707 0
-0.00704702 -0.926361 0
-0.0079822 -0.907792 0
-0.00891111 -0.887045 0
-0.00983346 -0.864169 0
-0.0107491 -0.839219 0
-0.0116579 -0.812255 0
-0.01256 -0.783342 0
-0.0134552 -0.752548 0
-0.0143435 -0.719948 0
-0.0152246 -0.68562 0
-0.0160974 -0.649645 0
-0.0169603 -0.612109 0
-0.0178103 -0.573102 0
-0.0186424 -0.532715 0
-0.0194491 -0.491043 0
-0.0202197 -0.448183 0
-0.0209394 -0.404232 0
-0.0215886 -0.359291 0
-0.0221419 -0.313458 0
-0.0225685 -0.26683 0
-0.0228369 -0.219489 0
-0.0229367 -0.171475 0
-0.0229322 -0.122761 0
-0.0230264 -0.0733395 0
-0.0236209 -0.0236209 0
-0.0733395 0.0230264 0
-0.0726259 0.0710513 0
-0.0711207 0.119876 0
-0.0691573 0.168594 0
-0.066949 0.216865 0
-0.0646338 0.264533 0
-0.0622965 0.311478 0
-0.0599868 0.357589 0
-0.0577292 0.40276 0
-0.0555302 0.446889 0
-0.0533839 0.489881 0
-0.0512766 0.531641 0
-0.0491906 0.572079 0
-0.0471071 0.611106 0
-0.0450082 0.648637 0
-0.0428784 0.684589 0
-0.0407051 0.718882 0
-0.0384789 0.751437 0
-0.0361931 0.782181 0
-0.033844 0.811042 0
-0.0314301 0.837954 0
-0.0289519 0.862852 0
-0.0264114 0.88568 0
-0.0238121 0.906383 0
-0.0211583 0.924911 0
-0.0184552 0.941221 0
-0.0157084 0.955274 0
-0.0129243 0.967036 0
-0.0101095 0.97648 0
-0.00727073 0.983583 0
-0.00441526 0.988327 0
-0.00154947 0.990699 0
0.00131952 0.9907 0
0.00418312 0.988329 0
0.00703425 0.983587 0
0.0098664 0.976486 0
0.0126724 0.967045 0
0.0154452 0.955284 0
0.0181782 0.941234 0
0.0208649 0.924926 0
0.0234996 0.906401 0
0.0260768 0.885702 0
0.0285919 0.862879 0
0.0310414 0.837985 0
0.0334229 0.811079 0
0.0357356 0.782224 0
0.0379806 0.751488 0
0.0401613 0.718942 0
0.0422838 0.684661 0
0.0443572 0.648722 0
0.0463935 0.611206 0
0.0484078 0.572197 0
0.0504172 0.531782 0
0.0524399 0.490049 0
0.0544929 0.447089 0
0.0565894 0.402997 0
0.0587347 0.357873 0
0.0609219 0.311819 0
0.0631266 0.264945 0
0.0653025 0.217366 0
0.0673758 0.169204 0
0.0692406 0.12059 0
0.0707588 0.0716771 0
0.0717896 0.0226739 0
0.0722923 -0.0261473 0
0.0723345 -0.0748232 0
0.0720091 -0.123266 0
0.0714001 -0.171362 0
0.0705651 -0.219011 0
0.0695386 -0.266109 0
0.0683412 -0.312553 0
0.0669869 -0.358234 0
0.0654857 -0.403049 0
0.0638447 -0.446892 0
0.0620691 -0.489659 0
0.060163 -0.531248 0
0.0581302 -0.571561 0
0.0559739 -0.610501 0
0.0536979 -0.647974 0
0.0513058 -0.68389 0
0.0488019 -0.718163 0
0.0461909 -0.750711 0
0.0434779 -0.781455 0
0.0406684 -0.810322 0
0.0377682 -0.837243 0
0.0347836 -0.862154 0
0.0317212 -0.884993 0
0.0285877 -0.905708 0
0.0253901 -0.924248 0
0.0221356 -0.940569 0
0.0188317 -0.954632 0
0.0154859 -0.966403 0
0.0121058 -0.975854 0
0.00869916 -0.982962 0
0.00527369 -0.98771 0
0.001837 -0.990086 0
-0.00160294 -0.990088 0
-0.00503747 -0.987717 0
-0.00845846 -0.982975 0
-0.0118583 -0.975872 0
-0.0152292 -0.966426 0
-0.0185633 -0.95466 0
-0.021853 -0.940603 0
-0.0250904 -0.924287 0
-0.0282681 -0.905753 0
-0.0313785 -0.885044 0
-0.0344145 -0.862211 0
-0.037369 -0.837307 0
-0.040235 -0.810392 0
-0.0430061 -0.781531 0
-0.0456759 -0.750793 0
-0.0482385 -0.718252 0
-0.0506881 -0.683985 0
-0.0530195 -0.648075 0
-0.0552277 -0.610608 0
-0.0573082 -0.571673 0
-0.0592564 -0.531364 0
-0.0610678 -0.489776 0
-0.0627375 -0.447009 0
-0.0642597 -0.403164 0
-0.0656269 -0.358343 0
-0.0668284 -0.312651 0
-0.067851 -0.266188 0
-0.0686891 -0.219025 0
-0.0693818 -0.171147 0
-0.0700732 -0.122402 0
-0.0710513 -0.0726259 0
-0.0725522 -0.0222391 0
-0.122761 0.0229322 0
-0.122402 0.0700732 0
-0.121367 0.118314 0
-0.119781 0.166606 0
-0.117706 0.21457 0
-0.115211 0.262019 0
-0.11237 0.308814 0
-0.109254 0.354826 0
-0.105924 0.399934 0
-0.102431 0.444023 0
-0.098815 0.486985 0
-0.0951001 0.528715 0
-0.0913012 0.569119 0
-0.0874242 0.608104 0
-0.0834687 0.645584 0
-0.0794309 0.681474 0
-0.0753051 0.715697 0
-0.0710856 0.748176 0
-0.0667676 0.778838 0
-0.0623481 0.807616 0
-0.057826 0.834444 0
-0.0532022 0.85926 0
-0.0484798 0.882009 0
-0.0436635 0.902638 0
-0.0387596 0.921098 0
-0.0337758 0.937347 0
-0.0287209 0.951346 0
-0.0236046 0.963064 0
-0.0184374 0.972471 0
-0.0132304 0.979546 0
-0.00799494 0.984272 0
-0.00274164 0.986634 0
0.00251773 0.986636 0
0.00776893 0.984278 0
0.0130001 0.979556 0
0.0182008 0.972485 0
0.0233594 0.963082 0
0.0284648 0.951369 0
0.0335064 0.937374 0
0.0384744 0.921131 0
0.0433598 0.902677 0
0.0481548 0.882055 0
0.0528528 0.859313 0
0.0574489 0.834505 0
0.0619398 0.807686 0
0.0663243 0.77892 0
0.0706032 0.748269 0
0.0747792 0.715805 0
0.0788567 0.681598 0
0.0828409 0.645726 0
0.086737 0.608269 0
0.0905486 0.569309 0
0.0942755 0.528934 0
0.0979113 0.487238 0
0.101441 0.444317 0
0.104839 0.400275 0
0.108066 0.355223 0
0.111072 0.309277 0
0.113795 0.26256 0
0.116167 0.215203 0
0.118121 0.16734 0
0.119596 0.119113 0
0.120557 0.070674 0
0.121017 0.0221862 0
0.121047 -0.026192 0
0.120713 -0.0744864 0
0.12004 -0.122605 0
0.11905 -0.170424 0
0.117764 -0.217827 0
0.116195 -0.264698 0
0.114355 -0.310926 0
0.11225 -0.356402 0
0.109887 -0.401017 0
0.107272 -0.444667 0
0.10441 -0.487246 0
0.101308 -0.528653 0
0.0979715 -0.568788 0
0.0944092 -0.607555 0
0.0906283 -0.644862 0
0.0866377 -0.680618 0
0.0824462 -0.714739 0
0.0780638 -0.747141 0
0.0735005 -0.777748 0
0.068767 -0.806486 0
0.0638744 -0.833287 0
0.0588342 -0.858086 0
0.053658 -0.880823 0
0.0483581 -0.901445 0
0.0429467 -0.919902 0
0.0374366 -0.93615 0
0.0318405 -0.950151 0
0.0261716 -0.96187 0
0.020443 -0.971279 0
0.014668 -0.978356 0
0.00886005 -0.983083 0
0.00303224 -0.985448 0
-0.00280163 -0.985452 0
-0.00862721 -0.983094 0
-0.0144307 -0.978374 0
-0.0201989 -0.971304 0
-0.0259184 -0.961903 0
-0.0315757 -0.950192 0
-0.0371576 -0.936199 0
-0.0426508 -0.91996 0
-0.0480424 -0.901511 0
-0.0533193 -0.880898 0
-0.0584691 -0.858171 0
-0.0634794 -0.833382 0
-0.068338 -0.806592 0
-0.073033 -0.777865 0
-0.0775531 -0.74727 0
-0.081887 -0.714879 0
-0.086024 -0.680771 0
-0.0899538 -0.645028 0
-0.0936664 -0.607734 0
-0.0971524 -0.56898 0
-0.100403 -0.528858 0
-0.103409 -0.487464 0
-0.106164 -0.444897 0
-0.108658 -0.401259 0
-0.110884 -0.356654 0
-0.112831 -0.311191 0
-0.11449 -0.264966 0
-0.115876 -0.218023 0
-0.117078 -0.170255 0
-0.118314 -0.121367 0
-0.119876 -0.0711207 0
-0.121761 -0.0203579 0
-0.171475 0.0229367 0
-0.171147 0.0693818 0
-0.170255 0.117078 0
-0.168841 0.164842 0
-0.166885 0.212303 0
-0.164386 0.259291 0
-0.161359 0.305674 0
-0.157837 0.351328 0
-0.153863 0.396129 0
-0.149483 0.439958 0
-0.144749 0.482699 0
-0.139706 0.524243 0
-0.134397 0.564483 0
-0.128855 0.603321 0
-0.123107 0.640663 0
-0.117172 0.676423 0
-0.111065 0.710516 0
-0.104796 0.742867 0
-0.0983704 0.773403 0
-0.0917947 0.802056 0
-0.0850738 0.828761 0
-0.0782132 0.853459 0
-0.0712194 0.876095 0
-0.0640999 0.896617 0
-0.056864 0.914979 0
-0.049522 0.93114 0
-0.0420855 0.945062 0
-0.0345674 0.956714 0
-0.0269814 0.966068 0
-0.0193422 0.973103 0
-0.0116648 0.977802 0
-0.00396305 0.980149 0
0.00374714 0.980152 0
0.0114469 0.977811 0
0.0191203 0.973118 0
0.0267534 0.966089 0
0.0343311 0.956741 0
0.0418388 0.945096 0
0.0492625 0.931182 0
0.0565894 0.915029 0
0.0638077 0.896675 0
0.0709067 0.876162 0
0.0778773 0.853537 0
0.0847116 0.828851 0
0.0914028 0.802158 0
0.0979453 0.773521 0
0.104334 0.743001 0
0.110562 0.710668 0
0.116623 0.676596 0
0.122507 0.640861 0
0.1282 0.603546 0
0.133681 0.564739 0
0.138924 0.524534 0
0.143893 0.483032 0
0.148548 0.440338 0
0.152842 0.396563 0
0.156723 0.351826 0
0.160145 0.306246 0
0.163066 0.259947 0
0.165456 0.213054 0
0.167298 0.165693 0
0.168596 0.117988 0
0.169371 0.0700638 0
0.169663 0.0220443 0
0.169525 -0.0259419 0
0.168984 -0.0738611 0
0.16804 -0.121613 0
0.166695 -0.169081 0
0.164954 -0.216143 0
0.162823 -0.262683 0
0.160309 -0.308587 0
0.157419 -0.353746 0
0.154159 -0.398051 0
0.150538 -0.441397 0
0.146564 -0.48368 0
0.142246 -0.524798 0
0.137594 -0.564654 0
0.132618 -0.603151 0
0.127331 -0.640198 0
0.121746 -0.675706 0
0.115874 -0.709588 0
0.10973 -0.741765 0
0.103329 -0.77216 0
0.0966856 -0.800698 0
0.0898154 -0.827312 0
0.0827348 -0.851939 0
0.0754604 -0.874519 0
0.0680094 -0.894998 0
0.0603994 -0.913328 0
0.0526484 -0.929464 0
0.0447746 -0.943367 0
0.0367965 -0.955006 0
0.0287331 -0.964351 0
0.0206031 -0.971379 0
0.0124257 -0.976074 0
0.00421986 -0.978423 0
-0.00399498 -0.978428 0
-0.0121987 -0.976088 0
-0.0203717 -0.971403 0
-0.028495 -0.964384 0
-0.0365495 -0.955049 0
-0.0445161 -0.943421 0
-0.052376 -0.929528 0
-0.0601104 -0.913403 0
-0.0677009 -0.895086 0
-0.0751292 -0.874619 0
-0.0823777 -0.852052 0
-0.0894287 -0.827439 0
-0.0962654 -0.80084 0
-0.102871 -0.772317 0
-0.109229 -0.741939 0
-0.115325 -0.70978 0
-0.121143 -0.675916 0
-0.126668 -0.640428 0
-0.131887 -0.603402 0
-0.136786 -0.564927 0
-0.141353 -0.525094 0
-0.145576 -0.483999 0
-0.149442 -0.441741 0
-0.152942 -0.398421 0
-0.156064 -0.354145 0
-0.158794 -0.309023 0
-0.161127 -0.263142 0
-0.163097 -0.21649 0
-0.164842 -0.168841 0
-0.166606 -0.119781 0
-0.168594 -0.0691573 0
-0.170571 -0.0184587 0
-0.219489 0.0228369 0
-0.219025 0.0686891 0
-0.218023 0.115876 0
-0.21649 0.163097 0
-0.214395 0.209997 0
-0.211716 0.25642 0
-0.208445 0.302248 0
-0.204579 0.347367 0
-0.200129 0.391664 0
-0.195113 0.435027 0
-0.18956 0.477343 0
-0.183507 0.518504 0
-0.176995 0.558401 0
-0.170064 0.596931 0
-0.162757 0.633998 0
-0.15511 0.669507 0
-0.147158 0.703373 0
-0.138929 0.735513 0
-0.130449 0.765852 0
-0.121739 0.794321 0
-0.112816 0.820853 0
-0.103698 0.845389 0
-0.0944004 0.867873 0
-0.0849371 0.888256 0
-0.0753237 0.906491 0
-0.0655755 0.922538 0
-0.0557086 0.936361 0
-0.04574 0.947928 0
-0.0356872 0.957215 0
-0.0255686 0.964199 0
-0.0154025 0.968864 0
-0.00520639 0.97119 0
0.00500032 0.971194 0
0.0151946 0.968875 0
0.0253568 0.964218 0
0.0354696 0.957243 0
0.0455146 0.947965 0
0.0554734 0.936406 0
0.0653282 0.922593 0
0.0750621 0.906557 0
0.0846588 0.888332 0
0.0941028 0.867962 0
0.103379 0.845491 0
0.112472 0.82097 0
0.121366 0.794454 0
0.130046 0.766003 0
0.138491 0.735684 0
0.146681 0.703567 0
0.154591 0.669726 0
0.162191 0.634246 0
0.169448 0.597212 0
0.176322 0.558717 0
0.182773 0.518862 0
0.188759 0.477749 0
0.19424 0.435486 0
0.199177 0.392184 0
0.203544 0.347956 0
0.207321 0.302916 0
0.210498 0.257178 0
0.213077 0.210854 0
0.215068 0.164059 0
0.216488 0.116904 0
0.217356 0.0695044 0
0.217695 0.0219729 0
0.217524 -0.025562 0
0.21685 -0.0730254 0
0.215667 -0.120322 0
0.213977 -0.167337 0
0.211781 -0.213951 0
0.209085 -0.260048 0
0.205894 -0.305517 0
0.202217 -0.350248 0
0.198061 -0.394133 0
0.193437 -0.437069 0
0.188356 -0.478952 0
0.18283 -0.519681 0
0.176871 -0.55916 0
0.170494 -0.597293 0
0.163714 -0.63399 0
0.156546 -0.669161 0
0.149009 -0.702724 0
0.141119 -0.734597 0
0.132896 -0.764704 0
0.124359 -0.792973 0
0.115529 -0.819336 0
0.106426 -0.843731 0
0.0970711 -0.866098 0
0.0874879 -0.886385 0
0.0776984 -0.904542 0
0.067726 -0.920526 0
0.0575943 -0.934299 0
0.0473273 -0.945829 0
0.0369494 -0.955086 0
0.026485 -0.962049 0
0.015959 -0.966701 0
0.00539587 -0.969028 0
-0.00517907 -0.969034 0
-0.01574 -0.966718 0
-0.0262618 -0.962078 0
-0.0367197 -0.955127 0
-0.047089 -0.945882 0
-0.0573449 -0.934366 0
-0.067463 -0.920606 0
-0.0774193 -0.904635 0
-0.0871897 -0.886493 0
-0.096751 -0.866222 0
-0.10608 -0.843871 0
-0.115154 -0.819494 0
-0.123952 -0.79315 0
-0.132452 -0.764901 0
-0.140633 -0.734816 0
-0.148476 -0.702966 0
-0.15596 -0.669428 0
-0.163068 -0.634283 0
-0.169782 -0.597615 0
-0.176084 -0.559512 0
-0.181959 -0.520066 0
-0.187391 -0.479372 0
-0.192367 -0.437526 0
-0.196871 -0.394631 0
-0.20089 -0.350795 0
-0.204407 -0.306127 0
-0.207421 -0.260691 0
-0.209997 -0.214395 0
-0.212303 -0.166885 0
-0.21457 -0.117706 0
-0.216865 -0.066949 0
-0.218795 -0.0167606 0
-0.26683 0.0225685 0
-0.266188 0.067851 0
-0.264966 0.11449 0
-0.263142 0.161127 0
-0.260691 0.207421 0
-0.257603 0.253229 0
-0.253872 0.298436 0
-0.249493 0.342934 0
-0.244464 0.386618 0
-0.23879 0.429383 0
-0.232479 0.471124 0
-0.225548 0.511739 0
-0.218019 0.551124 0
-0.209923 0.589181 0
-0.201296 0.625812 0
-0.192174 0.660924 0
-0.182598 0.694427 0
-0.172607 0.726238 0
-0.162238 0.756278 0
-0.151528 0.784474 0
-0.140508 0.810757 0
-0.129209 0.835067 0
-0.117659 0.857347 0
-0.105885 0.877544 0
-0.09391 0.895614 0
-0.0817591 0.911516 0
-0.0694556 0.925213 0
-0.0570227 0.936675 0
-0.0444837 0.945876 0
-0.0318621 0.952797 0
-0.0191812 0.957419 0
-0.00646293 0.95972 0
0.00626846 0.959726 0
0.018985 0.957433 0
0.0316623 0.952821 0
0.0442784 0.945911 0
0.0568101 0.93672 0
0.0692338 0.925269 0
0.0815261 0.911584 0
0.0936636 0.895695 0
0.105623 0.877638 0
0.117379 0.857455 0
0.128909 0.835192 0
0.140185 0.8109 0
0.151179 0.784635 0
0.161861 0.756461 0
0.172197 0.726445 0
0.182153 0.69466 0
0.19169 0.661186 0
0.200769 0.626107 0
0.20935 0.589513 0
0.217395 0.551497 0
0.224868 0.512158 0
0.231739 0.471596 0
0.237985 0.429913 0
0.243589 0.387215 0
0.248542 0.343606 0
0.252841 0.299191 0
0.256489 0.254079 0
0.259489 0.208375 0
0.261846 0.16219 0
0.263566 0.115634 0
0.264653 0.0688193 0
0.265114 0.0218589 0
0.264953 -0.0251163 0
0.26417 -0.0720139 0
0.262764 -0.118745 0
0.260737 -0.165196 0
0.258091 -0.211251 0
0.254834 -0.256795 0
0.250973 -0.301718 0
0.246515 -0.345912 0
0.241473 -0.389271 0
0.235857 -0.431692 0
0.229681 -0.473072 0
0.222959 -0.513313 0
0.215708 -0.552318 0
0.207945 -0.589994 0
0.199688 -0.626251 0
0.190957 -0.661001 0
0.181772 -0.694162 0
0.172156 -0.725653 0
0.162132 -0.7554 0
0.151723 -0.783331 0
0.140954 -0.809379 0
0.12985 -0.833482 0
0.118439 -0.855582 0
0.106747 -0.875626 0
0.0948029 -0.893567 0
0.082634 -0.90936 0
0.0702696 -0.922969 0
0.0577392 -0.934361 0
0.0450727 -0.943509 0
0.0323 -0.95039 0
0.0194515 -0.954986 0
0.00655755 -0.957286 0
-0.00635112 -0.957292 0
-0.0192431 -0.955006 0
-0.0320875 -0.950424 0
-0.0448539 -0.943557 0
-0.0575121 -0.934424 0
-0.0700319 -0.923048 0
-0.0823832 -0.909454 0
-0.0945366 -0.893677 0
-0.106463 -0.875754 0
-0.118134 -0.855729 0
-0.12952 -0.833649 0
-0.140596 -0.809567 0
-0.151333 -0.783542 0
-0.161707 -0.755636 0
-0.171691 -0.725916 0
-0.181261 -0.694453 0
-0.190395 -0.661323 0
-0.199068 -0.626606 0
-0.207261 -0.590386 0
-0.214951 -0.552749 0
-0.222121 -0.513786 0
-0.228751 -0.47359 0
-0.234825 -0.432259 0
-0.240325 -0.389894 0
-0.245233 -0.346606 0
-0.24953 -0.302501 0
-0.253229 -0.257603 0
-0.25642 -0.211716 0
-0.259291 -0.164386 0
-0.262019 -0.115211 0
-0.264533 -0.0646338 0
-0.266356 -0.0153239 0
-0.313458 0.0221419 0
-0.312651 0.0668284 0
-0.311191 0.112831 0
-0.309023 0.158794 0
-0.306127 0.204407 0
-0.302501 0.24953 0
-0.298151 0.294053 0
-0.293082 0.337869 0
-0.287299 0.380873 0
-0.280808 0.422963 0
-0.273616 0.464041 0
-0.265732 0.504007 0
-0.257171 0.542766 0
-0.24795 0.580223 0
-0.238092 0.616285 0
-0.227626 0.650864 0
-0.216586 0.683871 0
-0.205007 0.715225 0
-0.192929 0.744845 0
-0.180392 0.772659 0
-0.167435 0.798596 0
-0.154099 0.822594 0
-0.140422 0.844593 0
-0.126442 0.864542 0
-0.112193 0.882393 0
-0.09771 0.898103 0
-0.0830268 0.911638 0
-0.0681752 0.922965 0
-0.053187 0.932059 0
-0.038093 0.938899 0
-0.0229236 0.943466 0
-0.00770704 0.945738 0
0.00752576 0.945744 0
0.0227406 0.943483 0
0.0379068 0.938927 0
0.0529957 0.9321 0
0.0679773 0.923018 0
0.0828203 0.911704 0
0.0974932 0.898183 0
0.111964 0.882487 0
0.126198 0.864652 0
0.140163 0.84472 0
0.153821 0.822739 0
0.167136 0.798762 0
0.180069 0.772846 0
0.19258 0.745057 0
0.204629 0.715463 0
0.216176 0.684139 0
0.227181 0.651165 0
0.237608 0.616623 0
0.247423 0.580601 0
0.256599 0.543189 0
0.26511 0.504481 0
0.27294 0.464571 0
0.280074 0.423557 0
0.286503 0.381538 0
0.29222 0.338613 0
0.297219 0.294886 0
0.301495 0.250461 0
0.305043 0.205445 0
0.307857 0.159948 0
0.309933 0.11408 0
0.311268 0.0679508 0
0.311863 0.0216722 0
0.311718 -0.0246243 0
0.310835 -0.0708399 0
0.309213 -0.116891 0
0.306855 -0.162666 0
0.303768 -0.208049 0
0.299958 -0.25293 0
0.295434 -0.297198 0
0.290207 -0.340748 0
0.28429 -0.383475 0
0.277695 -0.425277 0
0.270439 -0.466054 0
0.262538 -0.505709 0
0.254013 -0.544146 0
0.244883 -0.581273 0
0.235169 -0.617002 0
0.224895 -0.651246 0
0.214086 -0.683924 0
0.202768 -0.714957 0
0.190966 -0.744271 0
0.178711 -0.771795 0
0.16603 -0.797465 0
0.152954 -0.821217 0
0.139514 -0.842996 0
0.125743 -0.862749 0
0.111672 -0.880429 0
0.0973369 -0.895993 0
0.0827704 -0.909405 0
0.0680076 -0.920632 0
0.0530837 -0.929648 0
0.0380343 -0.936429 0
0.0228952 -0.940959 0
0.00770216 -0.943225 0
-0.00750834 -0.943233 0
-0.0226994 -0.940982 0
-0.0378347 -0.936468 0
-0.0528782 -0.929703 0
-0.0677942 -0.920705 0
-0.0825469 -0.909495 0
-0.0971011 -0.896101 0
-0.111422 -0.880556 0
-0.125475 -0.862896 0
-0.139226 -0.843165 0
-0.152643 -0.821409 0
-0.165692 -0.797682 0
-0.178343 -0.772039 0
-0.190565 -0.744543 0
-0.202328 -0.715261 0
-0.213603 -0.684262 0
-0.224363 -0.651621 0
-0.234582 -0.617416 0
-0.244234 -0.581731 0
-0.253295 -0.544651 0
-0.261743 -0.506266 0
-0.269555 -0.466667 0
-0.276714 -0.42595 0
-0.283197 -0.384219 0
-0.288983 -0.341588 0
-0.294053 -0.298151 0
-0.298436 -0.253872 0
-0.302248 -0.208445 0
-0.305674 -0.161359 0
-0.308814 -0.11237 0
-0.311478 -0.0622965 0
-0.313175 -0.0141411 0
-0.359291 0.0215886 0
-0.358343 0.0656269 0
-0.356654 0.110884 0
-0.354145 0.156064 0
-0.350795 0.20089 0
-0.346606 0.245233 0
-0.341588 0.288983 0
-0.335752 0.332034 0
-0.329112 0.374284 0
-0.321683 0.415631 0
-0.313477 0.455976 0
-0.304512 0.495223 0
-0.294802 0.533279 0
-0.284366 0.570052 0
-0.273223 0.605456 0
-0.261398 0.639402 0
-0.248916 0.67181 0
-0.235809 0.7026 0
-0.222112 0.731694 0
-0.20786 0.759021 0
-0.193096 0.784513 0
-0.17786 0.808105 0
-0.162195 0.82974 0
-0.146144 0.849364 0
-0.129751 0.866929 0
-0.113057 0.882392 0
-0.0961066 0.895716 0
-0.0789394 0.906869 0
-0.0615969 0.915824 0
-0.0441189 0.922561 0
-0.0265445 0.92706 0
-0.00891049 0.929294 0
0.00874385 0.929301 0
0.0263763 0.927079 0
0.0439478 0.922594 0
0.0614212 0.915871 0
0.0787577 0.906929 0
0.0959171 0.895791 0
0.112859 0.882482 0
0.129541 0.867036 0
0.145921 0.849489 0
0.161957 0.829884 0
0.177605 0.808269 0
0.192822 0.784699 0
0.207566 0.759232 0
0.221794 0.731932 0
0.235465 0.702867 0
0.248544 0.67211 0
0.260994 0.639738 0
0.272785 0.605831 0
0.28389 0.570472 0
0.294286 0.533747 0
0.303951 0.495746 0
0.31287 0.456559 0
0.321024 0.416281 0
0.3284 0.375009 0
0.334982 0.332842 0
0.340757 0.289882 0
0.345712 0.246234 0
0.349834 0.202002 0
0.353114 0.157297 0
0.355546 0.112224 0
0.357124 0.0668931 0
0.357848 0.0214113 0
0.357718 -0.0240897 0
0.356736 -0.0695088 0
0.354902 -0.114766 0
0.352221 -0.159752 0
0.348699 -0.204354 0
0.344346 -0.248462 0
0.339171 -0.291968 0
0.333188 -0.334768 0
0.326409 -0.376759 0
0.318852 -0.417841 0
0.310533 -0.457916 0
0.301473 -0.496887 0
0.291694 -0.534663 0
0.281219 -0.571151 0
0.270072 -0.606264 0
0.258281 -0.639919 0
0.245874 -0.672035 0
0.23288 -0.702534 0
0.219331 -0.731343 0
0.205259 -0.758395 0
0.190697 -0.783622 0
0.17568 -0.806967 0
0.160245 -0.828371 0
0.144428 -0.847785 0
0.128266 -0.865161 0
0.1118 -0.880459 0
0.095067 -0.893641 0
0.078108 -0.904675 0
0.0609635 -0.913536 0
0.0436743 -0.920202 0
0.0262817 -0.924654 0
0.00882702 -0.926882 0
-0.00864793 -0.926891 0
-0.0261008 -0.924681 0
-0.0434898 -0.920246 0
-0.0607735 -0.913598 0
-0.0779107 -0.904756 0
-0.0948602 -0.893741 0
-0.111581 -0.88058 0
-0.128034 -0.865304 0
-0.14418 -0.84795 0
-0.159978 -0.828561 0
-0.175392 -0.807183 0
-0.190383 -0.783867 0
-0.204917 -0.758669 0
-0.218958 -0.731651 0
-0.232471 -0.702877 0
-0.245424 -0.672417 0
-0.257785 -0.640344 0
-0.269525 -0.606735 0
-0.280613 -0.571672 0
-0.291023 -0.535239 0
-0.300729 -0.497524 0
-0.309707 -0.458618 0
-0.317933 -0.418614 0
-0.325385 -0.37762 0
-0.332034 -0.335752 0
-0.337869 -0.293082 0
-0.342934 -0.249493 0
-0.347367 -0.204579 0
-0.351328 -0.157837 0
-0.354826 -0.109254 0
-0.357589 -0.0599868 0
-0.359164 -0.0131783 0
-0.404232 0.0209394 0
-0.403164 0.0642597 0
-0.401259 0.108658 0
-0.398421 0.152942 0
-0.394631 0.196871 0
-0.389894 0.240325 0
-0.384219 0.283197 0
-0.37762 0.325385 0
-0.370113 0.366787 0
-0.361716 0.407302 0
-0.35245 0.446834 0
-0.342338 0.485287 0
-0.331401 0.522569 0
-0.319665 0.55859 0
-0.307154 0.593264 0
-0.293895 0.626509 0
-0.279916 0.658244 0
-0.265248 0.688392 0
-0.249924 0.71688 0
-0.23398 0.74364 0
-0.217454 0.768604 0
-0.200388 0.791711 0
-0.182824 0.812905 0
-0.164808 0.832132 0
-0.146387 0.849345 0
-0.127606 0.864501 0
-0.108514 0.877563 0
-0.0891583 0.888498 0
-0.0695868 0.897281 0
-0.0498476 0.903888 0
-0.029988 0.908299 0
-0.0100546 0.910487 0
0.0099039 0.910495 0
0.029836 0.908321 0
0.0496929 0.903924 0
0.0694281 0.897332 0
0.0889941 0.888565 0
0.108343 0.877646 0
0.127427 0.864602 0
0.146198 0.849464 0
0.164608 0.83227 0
0.18261 0.813064 0
0.200159 0.791892 0
0.217209 0.768809 0
0.233716 0.743872 0
0.249639 0.717141 0
0.264941 0.688685 0
0.279583 0.658572 0
0.293534 0.626876 0
0.306763 0.593673 0
0.319242 0.559046 0
0.330943 0.523076 0
0.341842 0.485852 0
0.351914 0.447463 0
0.361136 0.408001 0
0.369487 0.367563 0
0.376945 0.326247 0
0.383493 0.284154 0
0.389115 0.241386 0
0.393797 0.198046 0
0.397529 0.154241 0
0.400303 0.110074 0
0.402115 0.0656526 0
0.402963 0.0210799 0
0.402846 -0.0235128 0
0.401767 -0.0680236 0
0.399725 -0.112376 0
0.396727 -0.156462 0
0.39278 -0.200174 0
0.387893 -0.243402 0
0.38208 -0.28604 0
0.375354 -0.327986 0
0.367731 -0.369139 0
0.359229 -0.409401 0
0.349868 -0.448676 0
0.339671 -0.48687 0
0.328662 -0.523892 0
0.316867 -0.559652 0
0.304315 -0.594065 0
0.291035 -0.627048 0
0.27706 -0.658523 0
0.262423 -0.688414 0
0.247158 -0.716649 0
0.231304 -0.743161 0
0.214897 -0.767887 0
0.197976 -0.790766 0
0.180583 -0.811744 0
0.162759 -0.830771 0
0.144546 -0.847801 0
0.125988 -0.862794 0
0.10713 -0.875714 0
0.0880164 -0.886529 0
0.0686932 -0.895214 0
0.0492066 -0.901748 0
0.0296031 -0.906112 0
0.00992947 -0.908296 0
-0.00976715 -0.908306 0
-0.0294391 -0.906141 0
-0.0490393 -0.901796 0
-0.0685209 -0.895283 0
-0.0878373 -0.886618 0
-0.106942 -0.875824 0
-0.12579 -0.862927 0
-0.144335 -0.847958 0
-0.162533 -0.830953 0
-0.18034 -0.811953 0
-0.197713 -0.791004 0
-0.214611 -0.768156 0
-0.230992 -0.743465 0
-0.246818 -0.71699 0
-0.262049 -0.688794 0
-0.276648 -0.658947 0
-0.290581 -0.62752 0
-0.303813 -0.594588 0
-0.316311 -0.560232 0
-0.328046 -0.524535 0
-0.338987 -0.487582 0
-0.349109 -0.449461 0
-0.358385 -0.410268 0
-0.366787 -0.370113 0
-0.374284 -0.329112 0
-0.380873 -0.287299 0
-0.386618 -0.244464 0
-0.391664 -0.200129 0
-0.396129 -0.153863 0
-0.399934 -0.105924 0
-0.40276 -0.0577292 0
-0.404225 -0.0123951 0
-0.448183 0.0202197 0
-0.447009 0.0627375 0
-0.444897 0.106164 0
-0.441741 0.149442 0
-0.437526 0.192367 0
-0.432259 0.234825 0
-0.42595 0.276714 0
-0.418614 0.317933 0
-0.410268 0.358385 0
-0.400931 0.39797 0
-0.390626 0.436595 0
-0.379379 0.474165 0
-0.367216 0.51059 0
-0.354167 0.545783 0
-0.340263 0.579657 0
-0.325538 0.612132 0
-0.310025 0.643129 0
-0.29376 0.672573 0
-0.276779 0.700394 0
-0.259122 0.726524 0
-0.240828 0.7509 0
-0.22194 0.773462 0
-0.202504 0.794155 0
-0.182566 0.812929 0
-0.162175 0.829736 0
-0.141381 0.844536 0
-0.120237 0.857292 0
-0.0987956 0.867972 0
-0.0771102 0.87655 0
-0.0552348 0.883004 0
-0.0332232 0.887312 0
-0.0111284 0.889446 0
0.0109946 0.889454 0
0.0330883 0.887336 0
0.0550976 0.883043 0
0.0769694 0.876606 0
0.0986501 0.868045 0
0.120086 0.857382 0
0.141223 0.844645 0
0.162008 0.829864 0
0.182389 0.813078 0
0.202316 0.794327 0
0.221739 0.773657 0
0.240612 0.751122 0
0.25889 0.726774 0
0.276529 0.700676 0
0.29349 0.672889 0
0.309734 0.643481 0
0.325223 0.612525 0
0.339923 0.580095 0
0.353799 0.54627 0
0.366819 0.511132 0
0.37895 0.474767 0
0.390164 0.437262 0
0.400432 0.39871 0
0.409731 0.359204 0
0.418038 0.318841 0
0.425332 0.277718 0
0.431598 0.235935 0
0.436821 0.193592 0
0.44099 0.150794 0
0.444096 0.107641 0
0.446134 0.0642362 0
0.447101 0.0206817 0
0.446996 -0.0228935 0
0.44582 -0.0663873 0
0.443575 -0.109726 0
0.440267 -0.152806 0
0.435904 -0.19552 0
0.430496 -0.237762 0
0.424059 -0.279429 0
0.416606 -0.320419 0
0.408157 -0.360634 0
0.398731 -0.399978 0
0.38835 -0.438358 0
0.37704 -0.475681 0
0.364827 -0.511859 0
0.351742 -0.546804 0
0.337814 -0.580433 0
0.323078 -0.612665 0
0.307569 -0.643423 0
0.291324 -0.672633 0
0.274382 -0.700225 0
0.256784 -0.726133 0
0.238571 -0.750295 0
0.219788 -0.772653 0
0.200479 -0.793154 0
0.180691 -0.811748 0
0.160472 -0.828391 0
0.139868 -0.843043 0
0.118931 -0.855669 0
0.0977091 -0.866239 0
0.0762544 -0.874727 0
0.054618 -0.881112 0
0.0328515 -0.885378 0
0.0110069 -0.887512 0
-0.0108633 -0.887523 0
-0.0327063 -0.885409 0
-0.0544698 -0.881164 0
-0.0761018 -0.874801 0
-0.0975504 -0.866335 0
-0.118764 -0.855789 0
-0.139692 -0.843187 0
-0.160284 -0.828561 0
-0.180491 -0.811946 0
-0.200263 -0.793381 0
-0.219554 -0.772912 0
-0.238317 -0.750588 0
-0.256506 -0.726463 0
-0.274078 -0.700595 0
-0.29099 -0.673046 0
-0.307201 -0.643884 0
-0.322671 -0.613179 0
-0.337364 -0.581004 0
-0.351243 -0.547439 0
-0.364274 -0.512563 0
-0.376425 -0.476461 0
-0.387667 -0.439219 0
-0.39797 -0.400931 0
-0.407302 -0.361716 0
-0.415631 -0.321683 0
-0.422963 -0.280808 0
-0.429383 -0.23879 0
-0.435027 -0.195113 0
-0.439958 -0.149483 0
-0.444023 -0.102431 0
-0.446889 -0.0555302 0
-0.448266 -0.0117518 0
-0.491043 0.0194491 0
-0.489776 0.0610678 0
-0.487464 0.103409 0
-0.483999 0.145576 0
-0.479372 0.187391 0
-0.47359 0.228751 0
-0.466667 0.269555 0
-0.458618 0.309707 0
-0.449461 0.349109 0
-0.439219 0.387667 0
-0.427914 0.425289 0
-0.415573 0.461883 0
-0.402226 0.497363 0
-0.387905 0.531641 0
-0.372645 0.564635 0
-0.356483 0.596266 0
-0.339457 0.626456 0
-0.32161 0.655133 0
-0.302984 0.682227 0
-0.283623 0.707673 0
-0.263573 0.731408 0
-0.242881 0.753375 0
-0.221596 0.773521 0
-0.199769 0.791797 0
-0.17745 0.808158 0
-0.154694 0.822565 0
-0.131556 0.834982 0
-0.108094 0.845378 0
-0.0843646 0.853729 0
-0.0604271 0.860012 0
-0.0363403 0.864205 0
-0.0121623 0.86628 0
0.0120464 0.866288 0
0.0362234 0.86423 0
0.0603084 0.860054 0
0.0842429 0.853788 0
0.107968 0.845456 0
0.131426 0.835078 0
0.154557 0.822681 0
0.177306 0.808295 0
0.199616 0.791956 0
0.221434 0.773704 0
0.242708 0.753583 0
0.263388 0.731644 0
0.283425 0.707938 0
0.302771 0.682526 0
0.32138 0.655467 0
0.33921 0.626829 0
0.356216 0.596681 0
0.372358 0.565097 0
0.387595 0.532154 0
0.401892 0.497932 0
0.415213 0.462514 0
0.427527 0.425987 0
0.438803 0.38844 0
0.449016 0.349963 0
0.458142 0.31065 0
0.466159 0.270597 0
0.473049 0.2299 0
0.478797 0.188657 0
0.48339 0.146967 0
0.486819 0.104932 0
0.489076 0.0626498 0
0.490158 0.0202196 0
0.490063 -0.0222317 0
0.488792 -0.0646028 0
0.486349 -0.106823 0
0.482738 -0.14879 0
0.477969 -0.190403 0
0.472053 -0.231557 0
0.465006 -0.27215 0
0.456846 -0.312084 0
0.44759 -0.351263 0
0.437263 -0.389594 0
0.425887 -0.426985 0
0.413491 -0.463347 0
0.400105 -0.498593 0
0.38576 -0.532638 0
0.370491 -0.565401 0
0.354334 -0.596803 0
0.337329 -0.626769 0
0.319515 -0.655227 0
0.300937 -0.682109 0
0.281638 -0.707351 0
0.261664 -0.730891 0
0.241064 -0.752674 0
0.219887 -0.772648 0
0.198183 -0.790763 0
0.176006 -0.806979 0
0.153407 -0.821254 0
0.130441 -0.833555 0
0.107163 -0.843854 0
0.0836292 -0.852124 0
0.0598956 -0.858345 0
0.0360191 -0.862502 0
0.0120569 -0.864582 0
-0.0119336 -0.864593 0
-0.0358945 -0.862535 0
-0.0597684 -0.858401 0
-0.0834981 -0.852203 0
-0.107027 -0.843956 0
-0.130298 -0.833683 0
-0.153255 -0.821408 0
-0.175844 -0.80716 0
-0.19801 -0.790974 0
-0.2197 -0.77289 0
-0.240862 -0.752951 0
-0.261444 -0.731204 0
-0.281397 -0.707704 0
-0.300673 -0.682506 0
-0.319225 -0.655671 0
-0.337008 -0.627265 0
-0.35398 -0.597356 0
-0.370098 -0.566016 0