# vtk DataFile Version 3.0
solver checkpoint state
ASCII
DATASET STRUCTURED_POINTS
DIMENSIONS 128 128 1
ORIGIN 0.0245437 0.0245437 0.5
SPACING 0.0490874 0.0490874 1
POINT_DATA 16384
VECTORS velocity double
-0.0235864 0.0235864 0
-0.0222329 0.0725405 0
-0.0203578 0.121756 0
-0.0184602 0.170568 0
-0.0167618 0.218791 0
-0.0153233 0.266352 0
-0.0141373 0.313171 0
-0.0131704 0.359159 0
-0.0123826 0.404221 0
-0.0117348 0.448262 0
-0.0111909 0.491188 0
-0.01072 0.532905 0
-0.0102961 0.573321 0
-0.00989827 0.612345 0
-0.00951041 0.649888 0
-0.00912037 0.685863 0
-0.00871944 0.720188 0
-0.00830172 0.752782 0
-0.0078635 0.783568 0
-0.00740278 0.812473 0
-0.00691883 0.839428 0
-0.00641186 0.86437 0
-0.00588278 0.887239 0
-0.00533299 0.907979 0
-0.00476425 0.926542 0
-0.00417853 0.942883 0
-0.00357801 0.956963 0
-0.00296497 0.968748 0
-0.00234181 0.97821 0
-0.00171099 0.985325 0
-0.00107513 0.990078 0
-0.000436496 0.992454 0
0.000202432 0.992454 0
0.000838787 0.990077 0
0.00147019 0.985324 0
0.00209426 0.978208 0
0.00270833 0.968746 0
0.00330983 0.956961 0
0.00389625 0.942881 0
0.00446518 0.92654 0
0.00501427 0.907977 0
0.00554134 0.887237 0
0.00604442 0.864369 0
0.00652185 0.839429 0
0.00697242 0.812475 0
0.00739558 0.783572 0
0.00779169 0.75279 0
0.00816234 0.7202 0
0.00851076 0.68588 0
0.00884233 0.649912 0
0.00916516 0.612378 0
0.00949071 0.573365 0
0.00983443 0.532963 0
0.0102164 0.491264 0
0.0106615 0.448361 0
0.0111999 0.404347 0
0.0118663 0.359321 0
0.0126986 0.313378 0
0.013736 0.266617 0
0.0150149 0.21914 0
0.0165612 0.171044 0
0.0183795 0.122431 0
0.0204172 0.0733927 0
0.022451 0.0240246 0
0.0239354 -0.025509 0
0.0246734 -0.0746801 0
0.0249497 -0.123457 0
0.0249213 -0.171807 0
0.0246596 -0.219661 0
0.0242142 -0.266929 0
0.0236267 -0.313516 0
0.0229311 -0.359319 0
0.0221554 -0.404239 0
0.0213225 -0.448174 0
0.0204501 -0.491023 0
0.0195516 -0.532688 0
0.0186367 -0.57307 0
0.0177119 -0.612074 0
0.0167813 -0.649608 0
0.0158475 -0.685582 0
0.0149115 -0.719911 0
0.0139739 -0.752512 0
0.0130347 -0.783307 0
0.0120934 -0.812222 0
0.0111498 -0.839188 0
0.0102035 -0.864141 0
0.00925432 -0.887019 0
0.00830207 -0.907769 0
0.00734679 -0.926341 0
0.00638864 -0.94269 0
0.00542788 -0.956777 0
0.00446491 -0.968568 0
0.0035002 -0.978035 0
0.00253426 -0.985155 0
0.00156761 -0.989911 0
0.000600684 -0.99229 0
-0.000365652 -0.992291 0
-0.00133028 -0.989915 0
-0.00229243 -0.985162 0
-0.00325155 -0.978045 0
-0.00420708 -0.968581 0
-0.00515841 -0.956792 0
-0.00610492 -0.942708 0
-0.0070461 -0.926362 0
-0.0079815 -0.907793 0
-0.00891077 -0.887046 0
-0.00983364 -0.86417 0
-0.01075 -0.83922 0
-0.0116597 -0.812256 0
-0.0125628 -0.783343 0
-0.0134592 -0.752549 0
-0.0143488 -0.719949 0
-0.0152312 -0.685621 0
-0.0161052 -0.649646 0
-0.0169691 -0.61211 0
-0.0178196 -0.573103 0
-0.0186518 -0.532715 0
-0.0194581 -0.491043 0
-0.0202278 -0.448182 0
-0.020946 -0.404231 0
-0.0215934 -0.359289 0
-0.0221448 -0.313456 0
-0.0225699 -0.266828 0
-0.0228377 -0.219486 0
-0.0229378 -0.171471 0
-0.0229327 -0.122756 0
-0.0230206 -0.0733282 0
-0.0235864 -0.0235864 0
-0.0733282 0.0230206 0
-0.0726238 0.0710483 0
-0.0711254 0.119875 0
-0.0691674 0.168593 0
-0.0669638 0.216864 0
-0.0646517 0.264529 0
-0.0623154 0.311471 0
-0.0600039 0.35758 0
-0.0577414 0.40275 0
-0.0555349 0.446879 0
-0.0533793 0.489872 0
-0.0512618 0.531633 0
-0.0491655 0.572073 0
-0.0470727 0.611102 0
-0.044966 0.648636 0
-0.0428305 0.68459 0
-0.0406536 0.718884 0
-0.0384257 0.751441 0
-0.0361401 0.782186 0
-0.0337927 0.811047 0
-0.0313817 0.837959 0
-0.0289072 0.862858 0
-0.026371 0.885686 0
-0.0237763 0.906388 0
-0.0211271 0.924916 0
-0.0184286 0.941225 0
-0.0156864 0.955278 0
-0.0129067 0.96704 0
-0.010096 0.976484 0
-0.00726126 0.983586 0
-0.00440967 0.98833 0
-0.00154767 0.990702 0
0.00131754 0.990703 0
0.00417735 0.988332 0
0.0070246 0.98359 0
0.00985273 0.97649 0
0.0126545 0.967048 0
0.015423 0.955288 0
0.0181514 0.941238 0
0.0208336 0.924931 0
0.0234635 0.906406 0
0.0260361 0.885708 0
0.028547 0.862884 0
0.0309928 0.83799 0
0.0333714 0.811084 0
0.0356823 0.782229 0
0.0379271 0.751492 0
0.0401094 0.718945 0
0.0422356 0.684661 0
0.0443148 0.64872 0
0.0463588 0.611202 0
0.0483824 0.572191 0
0.050402 0.531774 0
0.0524349 0.490039 0
0.0544973 0.447078 0
0.0566012 0.402987 0
0.0587514 0.357864 0
0.0609404 0.311813 0
0.0631443 0.264941 0
0.0653172 0.217364 0
0.0673863 0.169204 0
0.0692469 0.120592 0
0.0707617 0.0716793 0
0.0717902 0.0226758 0
0.0722919 -0.0261462 0
0.0723337 -0.0748227 0
0.0720081 -0.123266 0
0.0713992 -0.171362 0
0.0705644 -0.21901 0
0.0695382 -0.266109 0
0.0683412 -0.312552 0
0.0669875 -0.358234 0
0.0654867 -0.403049 0
0.063846 -0.446891 0
0.0620706 -0.489658 0
0.0601645 -0.531248 0
0.0581316 -0.571561 0
0.0559752 -0.610501 0
0.0536989 -0.647974 0
0.0513067 -0.68389 0
0.0488026 -0.718163 0
0.0461915 -0.750711 0
0.0434783 -0.781455 0
0.0406687 -0.810323 0
0.0377685 -0.837244 0
0.0347839 -0.862154 0
0.0317214 -0.884994 0
0.0285879 -0.905709 0
0.0253902 -0.924249 0
0.0221358 -0.94057 0
0.0188318 -0.954633 0
0.015486 -0.966404 0
0.0121059 -0.975855 0
0.00869925 -0.982963 0
0.00527378 -0.987711 0
0.00183709 -0.990086 0
-0.00160285 -0.990089 0
-0.00503738 -0.987718 0
-0.00845837 -0.982975 0
-0.0118582 -0.975872 0
-0.0152291 -0.966426 0
-0.0185633 -0.954661 0
-0.0218529 -0.940603 0
-0.0250904 -0.924288 0
-0.0282681 -0.905754 0
-0.0313785 -0.885045 0
-0.0344145 -0.862211 0
-0.037369 -0.837307 0
-0.0402351 -0.810393 0
-0.0430063 -0.781532 0
-0.0456762 -0.750794 0
-0.0482388 -0.718253 0
-0.0506886 -0.683986 0
-0.0530202 -0.648076 0
-0.0552286 -0.610608 0
-0.0573092 -0.571673 0
-0.0592574 -0.531364 0
-0.0610688 -0.489776 0
-0.0627382 -0.447009 0
-0.06426 -0.403164 0
-0.0656266 -0.358343 0
-0.0668276 -0.31265 0
-0.0678501 -0.266186 0
-0.0686894 -0.219021 0
-0.069384 -0.171142 0
-0.0700752 -0.122399 0
-0.0710483 -0.0726238 0
-0.0725405 -0.0222329 0
-0.122756 0.0229327 0
-0.122399 0.0700752 0
-0.121367 0.118318 0
-0.119786 0.166611 0
-0.117719 0.214574 0
-0.115234 0.262022 0
-0.112405 0.308813 0
-0.109299 0.354821 0
-0.105977 0.399925 0
-0.102489 0.44401 0
-0.0988725 0.486969 0
-0.0951519 0.528698 0
-0.091343 0.569103 0
-0.0874528 0.608089 0
-0.0834823 0.645571 0
-0.079429 0.681465 0
-0.0752885 0.715691 0
-0.071056 0.748173 0
-0.0667275 0.778839 0
-0.0623001 0.807619 0
-0.0577729 0.834449 0
-0.0531466 0.859267 0
-0.048424 0.882017 0
-0.0436095 0.902647 0
-0.038709 0.921107 0
-0.03373 0.937356 0
-0.0286808 0.951356 0
-0.023571 0.963073 0
-0.0184108 0.97248 0
-0.0132111 0.979555 0
-0.00798336 0.984281 0
-0.00273782 0.986643 0
0.00251373 0.986645 0
0.00775717 0.984287 0
0.0129807 0.979565 0
0.018174 0.972494 0
0.0233256 0.963091 0
0.0284245 0.951378 0
0.0334604 0.937384 0
0.0384236 0.92114 0
0.0433056 0.902685 0
0.0480988 0.882063 0
0.052797 0.85932 0
0.0573955 0.83451 0
0.0618916 0.80769 0
0.066284 0.77892 0
0.0705734 0.748267 0
0.0747624 0.715799 0
0.0788545 0.681589 0
0.0828541 0.645714 0
0.0867653 0.608253 0
0.0905901 0.569292 0
0.094327 0.528917 0
0.0979684 0.487221 0
0.101499 0.444303 0
0.104892 0.400265 0
0.108111 0.355217 0
0.111107 0.309276 0
0.113818 0.262563 0
0.116181 0.215208 0
0.118126 0.167346 0
0.119597 0.119119 0
0.120556 0.0706781 0
0.121015 0.0221887 0
0.121046 -0.0261909 0
0.120712 -0.0744859 0
0.120039 -0.122604 0
0.119049 -0.170424 0
0.117763 -0.217827 0
0.116195 -0.264698 0
0.114355 -0.310926 0
0.11225 -0.356402 0
0.109888 -0.401017 0
0.107272 -0.444667 0
0.10441 -0.487246 0
0.101308 -0.528653 0
0.097972 -0.568788 0
0.0944097 -0.607555 0
0.0906288 -0.644862 0
0.0866382 -0.680619 0
0.0824468 -0.714739 0
0.0780643 -0.747141 0
0.073501 -0.777748 0
0.0687676 -0.806487 0
0.063875 -0.833287 0
0.0588347 -0.858086 0
0.0536585 -0.880824 0
0.0483585 -0.901446 0
0.0429471 -0.919903 0
0.0374369 -0.936151 0
0.0318408 -0.950151 0
0.0261718 -0.96187 0
0.0204432 -0.97128 0
0.0146682 -0.978357 0
0.00886018 -0.983084 0
0.00303234 -0.985449 0
-0.00280157 -0.985452 0
-0.00862718 -0.983094 0
-0.0144307 -0.978375 0
-0.020199 -0.971305 0
-0.0259185 -0.961903 0
-0.0315759 -0.950192 0
-0.0371578 -0.9362 0
-0.0426511 -0.91996 0
-0.0480426 -0.901512 0
-0.0533196 -0.880899 0
-0.0584694 -0.858171 0
-0.0634797 -0.833383 0
-0.0683383 -0.806593 0
-0.0730333 -0.777866 0
-0.0775534 -0.74727 0
-0.0818872 -0.71488 0
-0.0860242 -0.680772 0
-0.0899539 -0.645028 0
-0.0936664 -0.607735 0
-0.0971523 -0.56898 0
-0.100403 -0.528858 0
-0.103409 -0.487464 0
-0.106163 -0.444898 0
-0.108658 -0.401259 0
-0.110883 -0.356655 0
-0.11283 -0.31119 0
-0.11449 -0.264963 0
-0.115879 -0.218016 0
-0.117083 -0.170248 0
-0.118318 -0.121367 0
-0.119875 -0.0711254 0
-0.121756 -0.0203578 0
-0.171471 0.0229378 0
-0.171142 0.069384 0
-0.170248 0.117083 0
-0.168833 0.16485 0
-0.166879 0.212314 0
-0.164385 0.259303 0
-0.161369 0.305686 0
-0.157863 0.351336 0
-0.153907 0.396132 0
-0.149548 0.439955 0
-0.144833 0.482691 0
-0.139806 0.524229 0
-0.134507 0.564464 0
-0.128969 0.603299 0
-0.123218 0.64064 0
-0.117276 0.6764 0
-0.111156 0.710496 0
-0.104871 0.742851 0
-0.0984285 0.773391 0
-0.0918357 0.802047 0
-0.0850989 0.828757 0
-0.0782243 0.853459 0
-0.071219 0.876098 0
-0.0640909 0.896623 0
-0.056849 0.914988 0
-0.0495036 0.931151 0
-0.0420661 0.945074 0
-0.0345489 0.956727 0
-0.0269654 0.966082 0
-0.01933 0.973118 0
-0.0116571 0.977818 0
-0.00396051 0.980164 0
0.00374442 0.980167 0
0.0114391 0.977826 0
0.0191078 0.973133 0
0.0267372 0.966103 0
0.0343124 0.956755 0
0.0418192 0.945109 0
0.049244 0.931193 0
0.0565742 0.915038 0
0.0637984 0.896682 0
0.0709061 0.876166 0
0.0778882 0.853537 0
0.0847364 0.828846 0
0.0914436 0.80215 0
0.0980032 0.773508 0
0.104409 0.742984 0
0.110653 0.710648 0
0.116727 0.676573 0
0.122619 0.640837 0
0.128314 0.603523 0
0.133791 0.56472 0
0.139023 0.52452 0
0.143977 0.483023 0
0.148613 0.440335 0
0.152885 0.396567 0
0.156748 0.351834 0
0.160155 0.306257 0
0.163066 0.259959 0
0.16545 0.213065 0
0.167291 0.165702 0
0.16859 0.117994 0
0.169366 0.0700672 0
0.16966 0.0220458 0
0.169524 -0.0259414 0
0.168983 -0.0738609 0
0.168039 -0.121613 0
0.166694 -0.169081 0
0.164954 -0.216143 0
0.162823 -0.262683 0
0.16031 -0.308587 0
0.157419 -0.353746 0
0.15416 -0.398051 0
0.150539 -0.441397 0
0.146564 -0.48368 0
0.142246 -0.524798 0
0.137594 -0.564654 0
0.132619 -0.603152 0
0.127332 -0.640198 0
0.121746 -0.675706 0
0.115875 -0.709589 0
0.109731 -0.741766 0
0.10333 -0.77216 0
0.0966862 -0.800698 0
0.0898159 -0.827313 0
0.0827352 -0.851939 0
0.0754608 -0.874519 0
0.0680098 -0.894999 0
0.0603998 -0.913328 0
0.0526487 -0.929464 0
0.0447748 -0.943368 0
0.0367968 -0.955006 0
0.0287332 -0.964351 0
0.0206033 -0.97138 0
0.0124259 -0.976075 0
0.00421995 -0.978424 0
-0.00399492 -0.978428 0
-0.0121986 -0.976089 0
-0.0203717 -0.971404 0
-0.028495 -0.964385 0
-0.0365495 -0.95505 0
-0.0445162 -0.943422 0
-0.0523761 -0.929529 0
-0.0601106 -0.913404 0
-0.0677011 -0.895086 0
-0.0751295 -0.874619 0
-0.0823779 -0.852053 0
-0.089429 -0.82744 0
-0.0962656 -0.80084 0
-0.102871 -0.772317 0
-0.10923 -0.74194 0
-0.115325 -0.709781 0
-0.121143 -0.675916 0
-0.126668 -0.640429 0
-0.131887 -0.603403 0
-0.136786 -0.564927 0
-0.141353 -0.525094 0
-0.145575 -0.484 0
-0.149442 -0.441741 0
-0.152942 -0.398422 0
-0.156063 -0.354146 0
-0.158793 -0.309022 0
-0.161128 -0.263136 0
-0.163103 -0.216478 0
-0.16485 -0.168833 0
-0.166611 -0.119786 0
-0.168593 -0.0691674 0
-0.170568 -0.0184602 0
-0.219486 0.0228377 0
-0.219021 0.0686894 0
-0.218016 0.115879 0
-0.216478 0.163103 0
-0.214378 0.210007 0
-0.211695 0.256434 0
-0.208421 0.302265 0
-0.204558 0.347387 0
-0.200116 0.391684 0
-0.195115 0.435044 0
-0.189584 0.477356 0
-0.183558 0.51851 0
-0.177073 0.558399 0
-0.17017 0.596923 0
-0.162885 0.633982 0
-0.155256 0.669487 0
-0.147315 0.703349 0
-0.139091 0.735488 0
-0.130608 0.765828 0
-0.12189 0.794299 0
-0.112955 0.820834 0
-0.103823 0.845374 0
-0.0945086 0.867863 0
-0.085029 0.88825 0
-0.0753998 0.90649 0
-0.0656371 0.922541 0
-0.0557572 0.936367 0
-0.0457772 0.947937 0
-0.0357144 0.957226 0
-0.0255871 0.964211 0
-0.0154133 0.968877 0
-0.00520998 0.971204 0
0.00500375 0.971208 0
0.0152052 0.968889 0
0.0253752 0.964231 0
0.0354967 0.957254 0
0.0455516 0.947974 0
0.0555218 0.936413 0
0.0653896 0.922596 0
0.075138 0.906556 0
0.0847505 0.888327 0
0.0942109 0.867952 0
0.103503 0.845476 0
0.112611 0.820951 0
0.121518 0.794432 0
0.130205 0.765979 0
0.138653 0.735659 0
0.146839 0.703543 0
0.154738 0.669706 0
0.16232 0.63423 0
0.169553 0.597203 0
0.1764 0.558716 0
0.182823 0.518868 0
0.188783 0.477761 0
0.194242 0.435503 0
0.199164 0.392204 0
0.203522 0.347976 0
0.207296 0.302934 0
0.210476 0.257192 0
0.21306 0.210864 0
0.215057 0.164065 0
0.216481 0.116907 0
0.217353 0.0695055 0
0.217693 0.021973 0
0.217523 -0.025562 0
0.216849 -0.0730254 0
0.215667 -0.120322 0
0.213977 -0.167337 0
0.211781 -0.213951 0
0.209085 -0.260048 0
0.205895 -0.305517 0
0.202217 -0.350248 0
0.198062 -0.394133 0
0.193438 -0.437069 0
0.188357 -0.478952 0
0.18283 -0.519681 0
0.176871 -0.55916 0
0.170494 -0.597293 0
0.163714 -0.63399 0
0.156547 -0.669161 0
0.149009 -0.702724 0
0.14112 -0.734597 0
0.132897 -0.764704 0
0.12436 -0.792973 0
0.115529 -0.819337 0
0.106426 -0.843731 0
0.0970715 -0.866099 0
0.0874882 -0.886385 0
0.0776987 -0.904542 0
0.0677263 -0.920527 0
0.0575946 -0.9343 0
0.0473275 -0.945829 0
0.0369495 -0.955087 0
0.0264852 -0.96205 0
0.0159591 -0.966701 0
0.00539596 -0.969028 0
-0.00517901 -0.969034 0
-0.01574 -0.966718 0
-0.0262618 -0.962079 0
-0.0367197 -0.955128 0
-0.047089 -0.945883 0
-0.057345 -0.934366 0
-0.0674632 -0.920606 0
-0.0774194 -0.904636 0
-0.0871899 -0.886493 0
-0.0967512 -0.866223 0
-0.10608 -0.843872 0
-0.115155 -0.819495 0
-0.123953 -0.793151 0
-0.132452 -0.764902 0
-0.140634 -0.734816 0
-0.148476 -0.702966 0
-0.15596 -0.669429 0
-0.163068 -0.634284 0
-0.169782 -0.597616 0
-0.176084 -0.559513 0
-0.181959 -0.520067 0
-0.187391 -0.479372 0
-0.192366 -0.437527 0
-0.19687 -0.394632 0
-0.200888 -0.350796 0
-0.204406 -0.306124 0
-0.207425 -0.26068 0
-0.210007 -0.214378 0
-0.212314 -0.166879 0
-0.214574 -0.117719 0
-0.216864 -0.0669638 0
-0.218791 -0.0167618 0
-0.266828 0.0225699 0
-0.266186 0.0678501 0
-0.264963 0.11449 0
-0.263136 0.161128 0
-0.26068 0.207425 0
-0.257584 0.253236 0
-0.253842 0.298448 0
-0.249453 0.342951 0
-0.244416 0.38664 0
-0.238737 0.429408 0
-0.232427 0.471151 0
-0.225504 0.511765 0
-0.217992 0.551147 0
-0.209919 0.589199 0
-0.20132 0.625823 0
-0.192229 0.660926 0
-0.182683 0.694422 0
-0.172719 0.726226 0
-0.162372 0.756261 0
-0.151677 0.784453 0
-0.140667 0.810735 0
-0.12937 0.835045 0
-0.117817 0.857325 0
-0.106034 0.877525 0
-0.0940465 0.895598 0
-0.0818801 0.911503 0
-0.0695591 0.925204 0
-0.0571076 0.936669 0
-0.0445497 0.945873 0
-0.0319091 0.952796 0
-0.0192093 0.957419 0
-0.00647233 0.959722 0
0.0062777 0.959727 0
0.0190129 0.957434 0
0.0317091 0.95282 0
0.0443443 0.945908 0
0.0568949 0.936714 0
0.0693372 0.92526 0
0.0816469 0.911571 0
0.0937999 0.895679 0
0.105772 0.877619 0
0.117537 0.857434 0
0.12907 0.835169 0
0.140343 0.810877 0
0.151328 0.784614 0
0.161994 0.756444 0
0.172309 0.726433 0
0.182237 0.694655 0
0.191744 0.661188 0
0.200793 0.626117 0
0.209346 0.58953 0
0.217367 0.55152 0
0.224824 0.512184 0
0.231686 0.471623 0
0.237931 0.429939 0
0.24354 0.387237 0
0.248502 0.343623 0
0.252812 0.299203 0
0.25647 0.254086 0
0.259477 0.208378 0
0.26184 0.162191 0
0.263563 0.115634 0
0.264652 0.0688187 0
0.265113 0.0218583 0
0.264952 -0.0251167 0
0.26417 -0.0720141 0
0.262764 -0.118745 0
0.260737 -0.165197 0
0.258092 -0.211251 0
0.254835 -0.256795 0
0.250973 -0.301718 0
0.246516 -0.345912 0
0.241473 -0.389271 0
0.235857 -0.431692 0
0.229681 -0.473072 0
0.22296 -0.513313 0
0.215709 -0.552318 0
0.207945 -0.589995 0
0.199688 -0.626251 0
0.190957 -0.661002 0
0.181773 -0.694162 0
0.172157 -0.725654 0
0.162132 -0.7554 0
0.151723 -0.783331 0
0.140954 -0.809379 0
0.129851 -0.833482 0
0.11844 -0.855582 0
0.106748 -0.875627 0
0.0948032 -0.893567 0
0.0826343 -0.909361 0
0.0702699 -0.92297 0
0.0577395 -0.934362 0
0.0450729 -0.94351 0
0.0323002 -0.95039 0
0.0194517 -0.954986 0
0.00655763 -0.957286 0
-0.00635107 -0.957293 0
-0.019243 -0.955007 0
-0.0320875 -0.950425 0
-0.044854 -0.943558 0
-0.0575122 -0.934425 0
-0.070032 -0.923048 0
-0.0823833 -0.909455 0
-0.0945368 -0.893678 0
-0.106463 -0.875755 0
-0.118134 -0.855729 0
-0.12952 -0.833649 0
-0.140596 -0.809568 0
-0.151333 -0.783543 0
-0.161707 -0.755636 0
-0.171691 -0.725916 0
-0.181261 -0.694453 0
-0.190395 -0.661324 0
-0.199068 -0.626607 0
-0.207261 -0.590386 0
-0.214951 -0.552749 0
-0.222121 -0.513786 0
-0.228751 -0.473591 0
-0.234824 -0.43226 0
-0.240323 -0.389896 0
-0.24523 -0.346608 0
-0.24953 -0.302495 0
-0.253236 -0.257584 0
-0.256434 -0.211695 0
-0.259303 -0.164385 0
-0.262022 -0.115234 0
-0.264529 -0.0646517 0
-0.266352 -0.0153233 0
-0.313456 0.0221448 0
-0.31265 0.0668276 0
-0.31119 0.11283 0
-0.309022 0.158793 0
-0.306124 0.204406 0
-0.302495 0.24953 0
-0.298139 0.294056 0
-0.293059 0.337875 0
-0.287263 0.380883 0
-0.280756 0.42298 0
-0.273549 0.464063 0
-0.265651 0.504034 0
-0.25708 0.542796 0
-0.247856 0.580253 0
-0.238003 0.616315 0
-0.227549 0.650889 0
-0.216526 0.683891 0
-0.204971 0.715238 0
-0.192919 0.744851 0
-0.180407 0.772657 0
-0.167475 0.798588 0
-0.15416 0.82258 0
-0.1405 0.844576 0
-0.12653 0.864522 0
-0.112286 0.882371 0
-0.0978027 0.898081 0
-0.0831139 0.911616 0
-0.0682525 0.922944 0
-0.0532507 0.932039 0
-0.0381405 0.93888 0
-0.0229528 0.943448 0
-0.00771697 0.94572 0
0.00753555 0.945726 0
0.0227698 0.943465 0
0.0379541 0.938908 0
0.0530593 0.93208 0
0.0680544 0.922997 0
0.0829073 0.911682 0
0.0975857 0.898161 0
0.112057 0.882465 0
0.126286 0.864632 0
0.14024 0.844703 0
0.153882 0.822726 0
0.167176 0.798753 0
0.180084 0.772844 0
0.192569 0.745062 0
0.204592 0.715476 0
0.216116 0.684159 0
0.227103 0.65119 0
0.237518 0.616652 0
0.24733 0.580631 0
0.256508 0.543219 0
0.265029 0.504508 0
0.272872 0.464593 0
0.280022 0.423574 0
0.286467 0.381548 0
0.292197 0.338619 0
0.297206 0.294888 0
0.301489 0.250461 0
0.305041 0.205444 0
0.307856 0.159947 0
0.309933 0.114079 0
0.311268 0.0679499 0
0.311863 0.0216715 0
0.311718 -0.0246247 0
0.310835 -0.0708402 0
0.309213 -0.116891 0
0.306855 -0.162666 0
0.303768 -0.208049 0
0.299958 -0.25293 0
0.295434 -0.297198 0
0.290208 -0.340748 0
0.28429 -0.383475 0
0.277695 -0.425277 0
0.270439 -0.466054 0
0.262539 -0.505709 0
0.254013 -0.544146 0
0.244883 -0.581273 0
0.235169 -0.617002 0
0.224896 -0.651246 0
0.214087 -0.683924 0
0.202768 -0.714957 0
0.190967 -0.744271 0
0.178711 -0.771796 0
0.16603 -0.797465 0
0.152954 -0.821217 0
0.139514 -0.842996 0
0.125743 -0.862749 0
0.111673 -0.880429 0
0.0973372 -0.895994 0
0.0827706 -0.909406 0
0.0680078 -0.920633 0
0.0530839 -0.929648 0
0.0380345 -0.936429 0
0.0228953 -0.940959 0
0.00770224 -0.943226 0
-0.00750829 -0.943234 0
-0.0226994 -0.940983 0
-0.0378347 -0.936469 0
-0.0528783 -0.929704 0
-0.0677943 -0.920705 0
-0.082547 -0.909495 0
-0.0971012 -0.896102 0
-0.111422 -0.880556 0
-0.125475 -0.862897 0
-0.139226 -0.843165 0
-0.152643 -0.82141 0
-0.165692 -0.797682 0
-0.178343 -0.77204 0
-0.190565 -0.744544 0
-0.202328 -0.715261 0
-0.213603 -0.684262 0
-0.224363 -0.651621 0
-0.234582 -0.617417 0
-0.244234 -0.581732 0
-0.253295 -0.544652 0
-0.261742 -0.506267 0
-0.269555 -0.466668 0
-0.276713 -0.425952 0
-0.283195 -0.384222 0
-0.28898 -0.341589 0
-0.294056 -0.298139 0
-0.298448 -0.253842 0
-0.302265 -0.208421 0
-0.305686 -0.161369 0
-0.308813 -0.112405 0
-0.311471 -0.0623154 0
-0.313171 -0.0141373 0
-0.359289 0.0215934 0
-0.358343 0.0656266 0
-0.356655 0.110883 0
-0.354146 0.156063 0
-0.350796 0.200888 0
-0.346608 0.24523 0
-0.341589 0.28898 0
-0.33575 0.332033 0
-0.329105 0.374284 0
-0.321666 0.415633 0
-0.313447 0.455982 0
-0.304464 0.495234 0
-0.294735 0.533295 0
-0.284279 0.570074 0
-0.273119 0.605481 0
-0.261279 0.63943 0
-0.248789 0.671838 0
-0.235679 0.702626 0
-0.221985 0.731717 0
-0.207744 0.759038 0
-0.192993 0.784524 0
-0.177774 0.80811 0
-0.162127 0.829739 0
-0.146094 0.849356 0
-0.129718 0.866916 0
-0.113039 0.882374 0
-0.0960991 0.895695 0
-0.0789398 0.906845 0
-0.0616015 0.915798 0
-0.0441248 0.922533 0
-0.026549 0.927031 0
-0.00891224 0.929265 0
0.00874546 0.929271 0
0.0263808 0.92705 0
0.0439535 0.922566 0
0.0614257 0.915844 0
0.0787579 0.906905 0
0.0959095 0.89577 0
0.11284 0.882465 0
0.129508 0.867023 0
0.145871 0.849481 0
0.161889 0.829882 0
0.177519 0.808274 0
0.192719 0.784711 0
0.207449 0.759249 0
0.221667 0.731954 0
0.235335 0.702893 0
0.248416 0.672138 0
0.260875 0.639765 0
0.27268 0.605856 0
0.283803 0.570493 0
0.294219 0.533763 0
0.303904 0.495757 0
0.312839 0.456565 0
0.321007 0.416284 0
0.328392 0.375009 0
0.33498 0.33284 0
0.340758 0.28988 0
0.345713 0.246231 0
0.349835 0.202 0
0.353115 0.157295 0
0.355546 0.112223 0
0.357124 0.0668922 0
0.357848 0.0214107 0
0.357718 -0.0240901 0
0.356736 -0.0695091 0
0.354902 -0.114766 0
0.352221 -0.159752 0
0.348699 -0.204354 0
0.344346 -0.248462 0
0.339172 -0.291968 0
0.333188 -0.334768 0
0.326409 -0.376759 0
0.318852 -0.417841 0
0.310533 -0.457916 0
0.301474 -0.496888 0
0.291694 -0.534663 0
0.281219 -0.571151 0
0.270073 -0.606264 0
0.258282 -0.639919 0
0.245875 -0.672035 0
0.232881 -0.702534 0
0.219331 -0.731344 0
0.205259 -0.758395 0
0.190697 -0.783623 0
0.175681 -0.806967 0
0.160245 -0.828372 0
0.144428 -0.847785 0
0.128267 -0.865162 0
0.1118 -0.880459 0
0.0950672 -0.893641 0
0.0781082 -0.904676 0
0.0609636 -0.913537 0
0.0436744 -0.920202 0
0.0262818 -0.924655 0
0.00882708 -0.926883 0
-0.00864789 -0.926891 0
-0.0261008 -0.924681 0
-0.0434898 -0.920246 0
-0.0607736 -0.913599 0
-0.0779107 -0.904757 0
-0.0948603 -0.893742 0
-0.111582 -0.88058 0
-0.128035 -0.865304 0
-0.14418 -0.847951 0
-0.159978 -0.828562 0
-0.175392 -0.807183 0
-0.190384 -0.783867 0
-0.204917 -0.75867 0
-0.218958 -0.731652 0
-0.232471 -0.702878 0
-0.245424 -0.672418 0
-0.257785 -0.640345 0
-0.269525 -0.606736 0
-0.280613 -0.571673 0
-0.291023 -0.53524 0
-0.300729 -0.497525 0
-0.309706 -0.458619 0
-0.317932 -0.418617 0
-0.325382 -0.377625 0
-0.332033 -0.33575 0
-0.337875 -0.293059 0
-0.342951 -0.249453 0
-0.347387 -0.204558 0
-0.351336 -0.157863 0
-0.354821 -0.109299 0
-0.35758 -0.0600039 0
-0.359159 -0.0131704 0
-0.404231 0.020946 0
-0.403164 0.06426 0
-0.401259 0.108658 0
-0.398422 0.152942 0
-0.394632 0.19687 0
-0.389896 0.240323 0
-0.384222 0.283195 0
-0.377625 0.325382 0
-0.370119 0.366783 0
-0.361722 0.407298 0
-0.352454 0.44683 0
-0.342335 0.485285 0
-0.331389 0.522569 0
-0.319639 0.558594 0
-0.307111 0.593272 0
-0.293833 0.62652 0
-0.279835 0.658259 0
-0.265149 0.688409 0
-0.249809 0.716899 0
-0.233853 0.743658 0
-0.217319 0.768621 0
-0.20025 0.791725 0
-0.182688 0.812915 0
-0.164678 0.832137 0
-0.146265 0.849345 0
-0.127495 0.864497 0
-0.108417 0.877554 0
-0.0890759 0.888485 0
-0.0695209 0.897264 0
-0.0497995 0.903869 0
-0.0299588 0.908279 0
-0.0100449 0.910466 0
0.00989398 0.910473 0
0.0298066 0.9083 0
0.0496447 0.903905 0
0.069362 0.897316 0
0.0889115 0.888552 0
0.108245 0.877637 0
0.127316 0.864597 0
0.146076 0.849464 0
0.164477 0.832275 0
0.182475 0.813073 0
0.200022 0.791906 0
0.217074 0.768826 0
0.233589 0.74389 0
0.249524 0.71716 0
0.264841 0.688702 0
0.279502 0.658586 0
0.293473 0.626887 0
0.306721 0.593681 0
0.319216 0.559049 0
0.330931 0.523077 0
0.341839 0.48585 0
0.351917 0.447459 0
0.361142 0.407997 0
0.369493 0.367559 0
0.37695 0.326244 0
0.383497 0.284151 0
0.389117 0.241384 0
0.393798 0.198045 0
0.397529 0.15424 0
0.400303 0.110074 0
0.402115 0.0656519 0
0.402963 0.0210794 0
0.402846 -0.0235132 0
0.401767 -0.0680239 0
0.399725 -0.112376 0
0.396727 -0.156463 0
0.39278 -0.200174 0
0.387894 -0.243402 0
0.382081 -0.28604 0
0.375355 -0.327986 0
0.367731 -0.369139 0
0.359229 -0.409401 0
0.349868 -0.448676 0
0.339671 -0.48687 0
0.328662 -0.523892 0
0.316867 -0.559652 0
0.304315 -0.594065 0
0.291035 -0.627048 0
0.27706 -0.658523 0
0.262423 -0.688414 0
0.247159 -0.71665 0
0.231304 -0.743162 0
0.214897 -0.767887 0
0.197976 -0.790766 0
0.180583 -0.811744 0
0.162759 -0.830771 0
0.144546 -0.847802 0
0.125988 -0.862795 0
0.10713 -0.875714 0
0.0880165 -0.88653 0
0.0686933 -0.895215 0
0.0492067 -0.901748 0
0.0296032 -0.906113 0
0.00992952 -0.908297 0
-0.00976712 -0.908306 0
-0.0294391 -0.906142 0
-0.0490393 -0.901797 0
-0.0685209 -0.895283 0
-0.0878374 -0.886619 0
-0.106942 -0.875825 0
-0.12579 -0.862928 0
-0.144335 -0.847959 0
-0.162533 -0.830954 0
-0.18034 -0.811954 0
-0.197713 -0.791004 0
-0.214611 -0.768157 0
-0.230992 -0.743465 0
-0.246818 -0.71699 0
-0.262049 -0.688795 0
-0.276648 -0.658948 0
-0.290581 -0.627521 0
-0.303813 -0.594589 0
-0.316311 -0.560233 0
-0.328046 -0.524536 0
-0.338987 -0.487583 0
-0.349108 -0.449463 0
-0.358383 -0.410273 0
-0.366783 -0.370119 0
-0.374284 -0.329105 0
-0.380883 -0.287263 0
-0.38664 -0.244416 0
-0.391684 -0.200116 0
-0.396132 -0.153907 0
-0.399925 -0.105977 0
-0.40275 -0.0577414 0
-0.404221 -0.0123826 0
-0.448182 0.0202278 0
-0.447009 0.0627382 0
-0.444898 0.106163 0
-0.441741 0.149442 0
-0.437527 0.192366 0
-0.43226 0.234824 0
-0.425952 0.276713 0
-0.418617 0.317932 0
-0.410273 0.358383 0
-0.400939 0.397968 0
-0.390637 0.436591 0
-0.379392 0.474161 0
-0.36723 0.510586 0
-0.354181 0.545778 0
-0.340274 0.579653 0
-0.325543 0.61213 0
-0.31002 0.643129 0
-0.293743 0.672576 0
-0.276749 0.700399 0
-0.259079 0.726531 0
-0.240773 0.750908 0
-0.221876 0.773471 0
-0.202433 0.794164 0
-0.182493 0.812937 0
-0.162103 0.829743 0
-0.141314 0.844541 0
-0.120177 0.857294 0
-0.0987441 0.867972 0
-0.0770691 0.876548 0
-0.0552051 0.883 0
-0.0332052 0.887307 0
-0.0111224 0.889441 0
0.0109885 0.889449 0
0.0330702 0.887331 0
0.0550677 0.883039 0
0.0769283 0.876604 0
0.0985986 0.868044 0
0.120025 0.857384 0
0.141155 0.844649 0
0.161935 0.829871 0
0.182315 0.813086 0
0.202245 0.794336 0
0.221674 0.773667 0
0.240557 0.75113 0
0.258846 0.726781 0
0.276499 0.70068 0
0.293474 0.672891 0
0.309729 0.643481 0
0.325228 0.612523 0
0.339934 0.580091 0
0.353813 0.546265 0
0.366833 0.511127 0
0.378963 0.474762 0
0.390174 0.437258 0
0.40044 0.398707 0
0.409736 0.359202 0
0.418041 0.318839 0
0.425334 0.277716 0
0.431599 0.235933 0
0.436821 0.193592 0
0.44099 0.150793 0
0.444096 0.10764 0
0.446134 0.0642356 0
0.447101 0.0206812 0
0.446996 -0.0228938 0
0.44582 -0.0663876 0
0.443576 -0.109726 0
0.440267 -0.152806 0
0.435904 -0.19552 0
0.430497 -0.237763 0
0.424059 -0.279429 0
0.416607 -0.320419 0
0.408157 -0.360634 0
0.398731 -0.399978 0
0.38835 -0.438358 0
0.37704 -0.475681 0
0.364828 -0.511859 0
0.351742 -0.546804 0
0.337814 -0.580433 0
0.323078 -0.612665 0
0.307569 -0.643423 0
0.291324 -0.672633 0
0.274382 -0.700225 0
0.256784 -0.726133 0
0.238571 -0.750295 0
0.219788 -0.772654 0
0.20048 -0.793154 0
0.180692 -0.811749 0
0.160472 -0.828392 0
0.139868 -0.843044 0
0.118931 -0.85567 0
0.0977092 -0.866239 0
0.0762545 -0.874727 0
0.0546181 -0.881113 0
0.0328515 -0.885378 0
0.011007 -0.887513 0
-0.0108632 -0.887523 0
-0.0327063 -0.885409 0
-0.0544699 -0.881165 0
-0.0761018 -0.874801 0
-0.0975505 -0.866336 0
-0.118764 -0.855789 0
-0.139692 -0.843188 0
-0.160284 -0.828562 0
-0.180491 -0.811946 0
-0.200263 -0.793381 0
-0.219554 -0.772912 0
-0.238317 -0.750588 0
-0.256506 -0.726463 0
-0.274078 -0.700595 0
-0.29099 -0.673047 0
-0.307201 -0.643885 0
-0.322671 -0.61318 0
-0.337364 -0.581005 0
-0.351243 -0.54744 0
-0.364274 -0.512564 0
-0.376425 -0.476462 0
-0.387666 -0.439221 0
-0.397968 -0.400939 0
-0.407298 -0.361722 0
-0.415633 -0.321666 0
-0.42298 -0.280756 0
-0.429408 -0.238737 0
-0.435044 -0.195115 0
-0.439955 -0.149548 0
-0.44401 -0.102489 0
-0.446879 -0.0555349 0
-0.448262 -0.0117348 0
-0.491043 0.0194581 0
-0.489776 0.0610688 0
-0.487464 0.103409 0
-0.484 0.145575 0
-0.479372 0.187391 0
-0.473591 0.228751 0
-0.466668 0.269555 0
-0.458619 0.309706 0
-0.449463 0.349108 0
-0.439221 0.387666 0
-0.427918 0.425287 0
-0.41558 0.461881 0
-0.402237 0.49736 0
-0.38792 0.531638 0
-0.372664 0.564631 0
-0.356506 0.596261 0
-0.339483 0.626452 0
-0.321636 0.655129 0
-0.303008 0.682224 0
-0.283643 0.70767 0
-0.263586 0.731407 0
-0.242887 0.753376 0
-0.221595 0.773524 0
-0.19976 0.791802 0
-0.177437 0.808164 0
-0.154678 0.822571 0
-0.131539 0.834988 0
-0.108078 0.845384 0
-0.0843506 0.853734 0
-0.0604166 0.860016 0
-0.0363337 0.864209 0
-0.0121601 0.866283 0
0.0120442 0.866291 0
0.0362168 0.864234 0
0.0602977 0.860058 0
0.0842288 0.853793 0
0.107952 0.845461 0
0.131408 0.835084 0
0.154541 0.822687 0
0.177292 0.808301 0
0.199608 0.791961 0
0.221433 0.773707 0
0.242714 0.753585 0
0.263401 0.731643 0
0.283444 0.707936 0
0.302794 0.682522 0
0.321406 0.655463 0
0.339235 0.626824 0
0.356239 0.596677 0
0.372377 0.565093 0
0.38761 0.53215 0
0.401903 0.497929 0
0.41522 0.462512 0
0.427531 0.425986 0
0.438806 0.388439 0
0.449018 0.349962 0
0.458143 0.31065 0
0.466159 0.270596 0
0.473049 0.229899 0
0.478797 0.188656 0
0.483391 0.146967 0
0.486819 0.104931 0
0.489076 0.0626493 0
0.490158 0.0202191 0
0.490063 -0.0222321 0
0.488793 -0.064603 0
0.486349 -0.106823 0
0.482738 -0.148791 0
0.477969 -0.190403 0
0.472053 -0.231557 0
0.465007 -0.27215 0
0.456846 -0.312084 0
0.447591 -0.351263 0
0.437263 -0.389594 0
0.425888 -0.426986 0
0.413492 -0.463348 0
0.400105 -0.498593 0
0.38576 -0.532639 0
0.370491 -0.565401 0
0.354334 -0.596804 0
0.337329 -0.626769 0
0.319516 -0.655228 0
0.300937 -0.68211 0
0.281638 -0.707351 0
0.261664 -0.730891 0
0.241064 -0.752674 0
0.219887 -0.772648 0
0.198184 -0.790764 0
0.176006 -0.806979 0
0.153407 -0.821254 0
0.130441 -0.833556 0
0.107163 -0.843854 0
0.0836293 -0.852124 0
0.0598957 -0.858346 0
0.0360192 -0.862502 0
0.0120569 -0.864582 0
-0.0119336 -0.864593 0
-0.0358946 -0.862535 0
-0.0597684 -0.858401 0
-0.0834981 -0.852203 0
-0.107027 -0.843957 0
-0.130298 -0.833683 0
-0.153255 -0.821408 0
-0.175844 -0.80716 0
-0.19801 -0.790975 0
-0.2197 -0.77289 0
-0.240862 -0.752951 0
-0.261444 -0.731205 0
-0.281397 -0.707704 0
-0.300673 -0.682507 0
-0.319225 -0.655672 0
-0.337008 -0.627266 0
-0.35398 -0.597357 0
-0.370098 -0.566017 0
-0.385324 -0.533323 0
-0.399621 -0.499353 0